CRYSTAL
PRIMVEC
 5.17600016000000 0.00000000000000 0.00000000000000
 0.00000000000000 5.50899976000000 0.00000000000000
 0.00000000000000 0.00000000000000 9.26300011000000
PRIMCOORD
 23 1
 22     1.93666817438659     3.19351398768211     3.46871740164292    -0.00043380012203    -0.00186178153591    -0.00161932412209
 22     3.35517440240459     2.23626404358837     5.83415213207868    -0.00288597837752     0.00223537932935    -0.00033968446746
 22     4.43448571961572     2.07950656533696     1.22704031300873     0.00188287535897     0.00051426330786    -0.00105124336268
 22     0.66369411631183     3.40872434380383     7.96367540133777     0.00094997635961    -0.00184292285328    -0.00033831269635
 22     2.08291774123959     0.36254976679425     1.25051671665200     0.00086414848774     0.00196417943910     0.00157277982652
 22     3.27318020686868     4.91464328449925     8.09752640809777    -0.00123796301507     0.00309398971994    -0.00544282924381
 22     0.76256289669189     0.47667628072040     5.81574853911522     0.00248159060882     0.00311184387856    -0.00197117000813
 22     4.62779307747205     5.02093200562476     3.44792261650232     0.00131338879565     0.00022651659934     0.00183315399969
  8     1.71760131093962     1.92493358648892     4.78073525670827     0.00121601594527    -0.00529911093069    -0.00205814798390
  8     3.61147604362897     3.58665370660162     4.53848844132486     0.00145663599909    -0.00062843421664    -0.00120718688473
  8     4.35038234917799     3.42172338314543     9.15405907826521    -0.00237828509175    -0.00053974053461     0.00677360431214
  8     3.59236764931882     0.74336547197350     0.09090757006111    -0.00014734760173     0.00570804616466    -0.00002734612957
  8     1.68184693526730     4.55582865047495     9.19009807998182    -0.00092415902926     0.00212895660874     0.00056421292517
  8     4.32227991369010     0.85457477087498     4.72668111879676    -0.00156946562602    -0.00391302194907     0.00085489797123
  8     1.02965593154412     4.66735129275253     4.47242493043534     0.00212183297430    -0.00269189740471    -0.00032512309918
  8     0.23243367708055     3.32449624325622     2.56269699915740     0.00074957378969     0.00063837742677     0.00305291291106
  8    -0.09634199341384     2.06410466968231     6.73019620148310    -0.00055601614452    -0.00036646629385    -0.00186772174209
  8     2.74995040168764     2.13460689122698     2.01945186936712    -0.00161309079470    -0.00219017201518    -0.00008243537690
  8     2.46838812293338     3.21156031263617     7.26874443663876    -0.00059788497912     0.00142687552393    -0.00153540374071
  8     0.33294654784844     0.60028115001438     2.01813382170886    -0.00202059291729     0.00032900260103     0.00228246509008
  8     5.02482657215764     4.93051268172668     7.20759894829775     0.00208178555967    -0.00105772170703     0.00087218725104
  8     2.49302608975680     0.54183322738768     6.65198514095528     0.00162934738009    -0.00198695585099    -0.00111966698263
  8     2.91541804339152     4.77338469370766     2.59417356838297    -0.00238258755988     0.00100079469268     0.00117938155330
