
     Program CP v.5.0           starts on 17Oct2013 at 18:42:27 

     This program is part of the open-source Quantum ESPRESSO suite
     for quantum simulation of materials; please cite
         "P. Giannozzi et al., J. Phys.:Condens. Matter 21 395502 (2009);
          URL http://www.quantum-espresso.org", 
     in publications or presentations arising from this work. More details at
     http://www.quantum-espresso.org/quote.php

     Parallel version (MPI), running on     6 processors
     R & G space division:  proc/pool =    6
     Waiting for input...
     Reading input from standard input
     Message from routine  system_checkin     :
      nosym not implemented in CP 

   Job Title: MD Simulation


   Atomic Pseudopotentials Parameters
   ----------------------------------

   Reading pseudopotential for specie #  1 from file :
   /home/sseiler/PWSCF_GBRV_PSP/li_pbe_v1.uspp.F.UPF
   file type is UPF v.1

   Reading pseudopotential for specie #  2 from file :
   /home/sseiler/PWSCF_GBRV_PSP/cr_pbe_v1.uspp.F.UPF
   file type is UPF v.1

   Reading pseudopotential for specie #  3 from file :
   /home/sseiler/PWSCF_GBRV_PSP/o_pbe_v1.01.uspp.F.UPF
   file type is UPF v.1


   Main Simulation Parameters (from input)
   ---------------------------------------
   Restart Mode       =       0   reset_counters 
   Number of MD Steps =     500
   Print out every           20 MD Steps
   Reads from unit    =      92
   Writes to unit     =      92
   MD Simulation time step            =      10.00
   Electronic fictitious mass (emass) =     600.00
   emass cut-off                      =       2.50

   Simulation Cell Parameters (from input)
   external pressure       =            0.00 [KBar]
   wmass (calculated)      =        48463.85 [AU]
   initial cell from CELL_PARAMETERS card
       5.88649188    0.00000000    0.00000000
       2.94324696    5.09785171    0.00000000
       1.47191889    0.84981324    4.79036543
   ibrav =    0
   alat  =     1.88971610
   a1    =    11.12379848    0.00000000    0.00000000
   a2    =     5.56190117    9.63349246    0.00000000
   a3    =     2.78150882    1.60590576    9.05243067

   b1    =     0.08989735   -0.05190227   -0.01841496
   b2    =     0.00000000    0.10380451   -0.01841497
   b3    =     0.00000000    0.00000000    0.11046757
   omega =     970.06778343

   Energy Cut-offs
   ---------------
   Ecutwfc =   40.0 Ry,      Ecutrho =  200.0 Ry,      Ecuts =  160.0 Ry
   Gcutwfc =    1.9     ,    Gcutrho =    4.3          Gcuts =    3.8
   NOTA BENE: refg, mmx =   0.050000  4800
   Eigenvalues calculated without the kinetic term contribution
   Orthog. with lagrange multipliers : eps =   0.10E-07,  max =  50
   Electron dynamics with newton equations
   Electron dynamics : the temperature is not controlled

   Electronic states
   -----------------
   Local Spin Density calculation
   Number of Electron =   110
   Spins up   =    60, occupations: 
   1.00 1.00 1.00 1.00 1.00 1.00 1.00 1.00 1.00 1.00
   1.00 1.00 1.00 1.00 1.00 1.00 1.00 1.00 1.00 1.00
   1.00 1.00 1.00 1.00 1.00 1.00 1.00 1.00 1.00 1.00
   1.00 1.00 1.00 1.00 1.00 1.00 1.00 1.00 1.00 1.00
   1.00 1.00 1.00 1.00 1.00 1.00 1.00 1.00 1.00 1.00
   1.00 1.00 1.00 1.00 1.00 1.00 1.00 1.00 1.00 1.00
   Spins down =    50, occupations: 
   1.00 1.00 1.00 1.00 1.00 1.00 1.00 1.00 1.00 1.00
   1.00 1.00 1.00 1.00 1.00 1.00 1.00 1.00 1.00 1.00
   1.00 1.00 1.00 1.00 1.00 1.00 1.00 1.00 1.00 1.00
   1.00 1.00 1.00 1.00 1.00 1.00 1.00 1.00 1.00 1.00
   1.00 1.00 1.00 1.00 1.00 1.00 1.00 1.00 1.00 1.00


   Exchange and correlations functionals
   -------------------------------------
   Using Local Density Approximation with
     Exchange functional: SLATER                                                      
     Correlation functional: PERDEW AND WANG                                             
   Using Generalized Gradient Corrections with
     Exchange functional: PERDEW BURKE ERNZERHOF                                      
     Correlation functional: PERDEW BURKE ERNZERHOF                                      
     Exchange-correlation      = SLA  PW   PBE  PBE ( 1 4 3 4 0)
     EXX-fraction              =        0.00


   Ions Simulation Parameters
   --------------------------
   Ions are allowed to move
   Ions dynamics with newton equations
   the temperature is computed for    42 degrees of freedom
   ion dynamics with fricp =  0.0000 and greasp =  1.0000
   Zero initial momentum for ions
   Ionic position (from input)
   sorted by specie, and converted to real a.u. coordinates
   Species   1 atoms =    2 mass =     12652.67 (a.u.),         6.94 (amu) rcmax =   0.50 (a.u.)
       11.124432     6.422684     9.052503
       16.686337     6.422684     9.052503
   Species   2 atoms =    4 mass =     94783.09 (a.u.),        52.00 (amu) rcmax =   0.50 (a.u.)
       16.686012     9.661872    13.457736
       19.468230    14.422951    13.699689
       22.247912     9.661873    13.457734
       25.030129    14.422954    13.699690
   Species   3 atoms =    8 mass =     29165.12 (a.u.),        16.00 (amu) rcmax =   0.50 (a.u.)
       13.905441     7.906438    11.626716
       16.686993    12.959809    11.800916
       19.467339     7.906439    11.626715
       22.248893    12.959810    11.800915
       19.467257    11.125026    15.356509
       22.248807    16.178393    15.530718
       25.029158    11.125027    15.356511
       27.810708    16.178393    15.530719
   Ionic position will be re-read from restart file

   All atoms are allowed to move
   Ionic temperature is not controlled


   Cell Dynamics Parameters (from STDIN)
   -------------------------------------
   Starting cell generated from CELLDM
   Cell parameters will be re-read from restart file
   Constant VOLUME Molecular dynamics
   cell parameters are not allowed to move

   Verbosity: iverbosity =  1



   Simulation dimensions initialization
   ------------------------------------

   unit vectors of full simulation cell
   in real space:                         in reciprocal space (units 2pi/alat):
   1    11.1238    0.0000    0.0000              0.1699   -0.0981   -0.0348
   2     5.5619    9.6335    0.0000              0.0000    0.1962   -0.0348
   3     2.7815    1.6059    9.0524              0.0000    0.0000    0.2088

     Parallelization info
     --------------------
     sticks:   dense  smooth     PW     G-vecs:    dense   smooth      PW
     Min         283     228     57                 7709     5510     686
     Max         286     229     60                 7714     5541     688
     Sum        1711    1369    349                46271    33155    4123
     Tot         856     685    175


   Real Mesh
   ---------
   Global Dimensions   Local  Dimensions   Processor Grid
   .X.   .Y.   .Z.     .X.   .Y.   .Z.     .X.   .Y.   .Z.
    54    54    45      54    54     8       1     1     6
   Array leading dimensions ( nr1x, nr2x, nr3x )   =     54    54    45
   Local number of cell to store the grid ( nrxx ) =      23328
   Number of x-y planes for each processors: 
   nr3l =     8    8    8    7    7    7

   Smooth Real Mesh
   ----------------
   Global Dimensions   Local  Dimensions   Processor Grid
   .X.   .Y.   .Z.     .X.   .Y.   .Z.     .X.   .Y.   .Z.
    45    45    40      45    45     7       1     1     6
   Array leading dimensions ( nr1x, nr2x, nr3x )   =     45    45    40
   Local number of cell to store the grid ( nrxx ) =      14175
   Number of x-y planes for each processors: 
   nr3sl =     7    7    7    7    6    6

   Small Box Real Mesh
   -------------------
   Global Dimensions   Local  Dimensions   Processor Grid
   .X.   .Y.   .Z.     .X.   .Y.   .Z.     .X.   .Y.   .Z.
    24    24    24      24    24    24       1     1     1
   Array leading dimensions ( nr1x, nr2x, nr3x )   =     24    24    24
   Local number of cell to store the grid ( nrxx ) =      13824

   unit vectors of box grid cell
   in real space:                         in reciprocal space:
       4.9439    0.0000    0.0000              0.1699   -0.0981   -0.0348
       2.4720    4.2816    0.0000              0.0000    0.1962   -0.0348
       1.4835    0.8565    4.8280              0.0000    0.0000    0.1740

   Reciprocal Space Mesh
   ---------------------
   Large Mesh
     Global(ngm_g)    MinLocal       MaxLocal      Average
          23136           3855           3857        3856.00
   Smooth Mesh
     Global(ngms_g)   MinLocal       MaxLocal      Average
          16578           2755           2771        2763.00
   Wave function Mesh
     Global(ngw_g)    MinLocal       MaxLocal      Average
           2062            343            344         343.67

   Small box Mesh
   ngb =         2435 not distributed to processors


   System geometry initialization
   ------------------------------

   Scaled positions from standard input
   Li   0.500004E+00  0.500002E+00  0.100001E+01
   Li   0.100000E+01  0.500002E+00  0.100001E+01
   Cr   0.750732E+00  0.755122E+00  0.148664E+01
   Cr   0.749279E+00  0.124489E+01  0.151337E+01
   Cr   0.125073E+01  0.755122E+00  0.148664E+01
   Cr   0.124928E+01  0.124489E+01  0.151337E+01
   O    0.625595E+00  0.606618E+00  0.128437E+01
   O    0.610160E+00  0.112797E+01  0.130362E+01
   O    0.112559E+01  0.606618E+00  0.128437E+01
   O    0.111016E+01  0.112797E+01  0.130362E+01
   O    0.889851E+00  0.872038E+00  0.169640E+01
   O    0.874416E+00  0.139339E+01  0.171564E+01
   O    0.138985E+01  0.872038E+00  0.169640E+01
   O    0.137442E+01  0.139339E+01  0.171564E+01
   ibrav =    0       cell parameters 

      11.12380       5.56190       2.78151
       0.00000       9.63349       1.60591
       0.00000       0.00000       9.05243


   unit vectors of box grid cell
   in real space:                         in reciprocal space:
       4.9439    0.0000    0.0000              1.0000   -0.5774   -0.2048
       2.4720    4.2816    0.0000              0.0000    1.1547   -0.2048
       1.4835    0.8565    4.8280              0.0000    0.0000    1.0240

   Matrix Multiplication Performances
   ortho mmul, time for parallel driver      =   0.00017 with    1 procs

   Constraints matrixes will be distributed block like on
   ortho sub-group =    1*   1 procs



   Pseudopotentials initialization
   -------------------------------
  nlinit  nh(is), ngb, is, kkbeta, lmaxq =            9        2435           1         541           3

                        qqq 
  11.0720  17.5258  35.1727   0.0000   0.0000
  17.5258  26.4636  55.1791   0.0000   0.0000
  35.1727  55.1791 111.6965   0.0000   0.0000
   0.0000   0.0000   0.0000   0.0928   0.2160
   0.0000   0.0000   0.0000   0.2160   0.3213

  nlinit  nh(is), ngb, is, kkbeta, lmaxq =           18        2435           2         595           5

                        qqq 
   0.1920  -0.2253   0.0000   0.0000   0.0000   0.0000
  -0.2253   0.0748   0.0000   0.0000   0.0000   0.0000
   0.0000   0.0000   3.0385  -3.8216   0.0000   0.0000
   0.0000   0.0000  -3.8216   4.4172   0.0000   0.0000
   0.0000   0.0000   0.0000   0.0000   7.5001  -7.3077
   0.0000   0.0000   0.0000   0.0000  -7.3077   7.0016

  nlinit  nh(is), ngb, is, kkbeta, lmaxq =           13        2435           3         511           5

                        qqq 
  -0.1994  -0.1480   0.0000   0.0000   0.0000
  -0.1480  -0.1411   0.0000   0.0000   0.0000
   0.0000   0.0000   2.6845  -2.1441   0.0000
   0.0000   0.0000  -2.1441   1.5890   0.0000
   0.0000   0.0000   0.0000   0.0000  15.4120



   Common initialization

   Specie:     1
   1  indv=  1   ang. mom=  0
   2  indv=  2   ang. mom=  0
   3  indv=  3   ang. mom=  0
   4  indv=  4   ang. mom=  1
   5  indv=  4   ang. mom=  1
   6  indv=  4   ang. mom=  1
   7  indv=  5   ang. mom=  1
   8  indv=  5   ang. mom=  1
   9  indv=  5   ang. mom=  1

                        dion 
  22.5086  22.6134  51.5397   0.0000   0.0000
  22.6134  18.2710  47.6623   0.0000   0.0000
  51.5397  47.6623 104.4743   0.0000   0.0000
   0.0000   0.0000   0.0000   0.0820   0.3987
   0.0000   0.0000   0.0000   0.3987   1.3862

   Specie:     2
   1  indv=  1   ang. mom=  0
   2  indv=  2   ang. mom=  0
   3  indv=  3   ang. mom=  1
   4  indv=  3   ang. mom=  1
   5  indv=  3   ang. mom=  1
   6  indv=  4   ang. mom=  1
   7  indv=  4   ang. mom=  1
   8  indv=  4   ang. mom=  1
   9  indv=  5   ang. mom=  2
  10  indv=  5   ang. mom=  2
  11  indv=  5   ang. mom=  2
  12  indv=  5   ang. mom=  2
  13  indv=  5   ang. mom=  2
  14  indv=  6   ang. mom=  2
  15  indv=  6   ang. mom=  2
  16  indv=  6   ang. mom=  2
  17  indv=  6   ang. mom=  2
  18  indv=  6   ang. mom=  2

                        dion 
  -0.3233  -0.5940   0.0000   0.0000   0.0000   0.0000
  -0.5940   1.8042   0.0000   0.0000   0.0000   0.0000
   0.0000   0.0000   6.9524 -12.7127   0.0000   0.0000
   0.0000   0.0000 -12.7127  21.9295   0.0000   0.0000
   0.0000   0.0000   0.0000   0.0000  31.9198 -35.9540
   0.0000   0.0000   0.0000   0.0000 -35.9540  40.4268

   Specie:     3
   1  indv=  1   ang. mom=  0
   2  indv=  2   ang. mom=  0
   3  indv=  3   ang. mom=  1
   4  indv=  3   ang. mom=  1
   5  indv=  3   ang. mom=  1
   6  indv=  4   ang. mom=  1
   7  indv=  4   ang. mom=  1
   8  indv=  4   ang. mom=  1
   9  indv=  5   ang. mom=  2
  10  indv=  5   ang. mom=  2
  11  indv=  5   ang. mom=  2
  12  indv=  5   ang. mom=  2
  13  indv=  5   ang. mom=  2

                        dion 
   0.6546   0.1001   0.0000   0.0000   0.0000
   0.1001   0.1199   0.0000   0.0000   0.0000
   0.0000   0.0000  13.0768 -14.6342   0.0000
   0.0000   0.0000 -14.6342  16.1292   0.0000
   0.0000   0.0000   0.0000   0.0000  53.7314

   Short Legend and Physical Units in the Output
   ---------------------------------------------
   NFI    [int]          - step index
   EKINC  [HARTREE A.U.] - kinetic energy of the fictitious electronic dynamics
   TEMPH  [K]            - Temperature of the fictitious cell dynamics
   TEMP   [K]            - Ionic temperature
   ETOT   [HARTREE A.U.] - Scf total energy (Kohn-Sham hamiltonian)
   ENTHAL [HARTREE A.U.] - Enthalpy ( ETOT + P * V )
   ECONS  [HARTREE A.U.] - Enthalpy + kinetic energy of ions and cell
   ECONT  [HARTREE A.U.] - Constant of motion for the CP lagrangian


   reading restart file: .//cp_92.save
   restart file read in    0.057 sec.

 Ionic velocities set to zero
 Electronic velocities set to zero

   formf: eself=   869.69417
   formf:     vps(g=0)=   0.0011813     rhops(g=0)=  -0.0030089
   formf: sum_g vps(g)=   0.7180788 sum_g rhops(g)=  -2.1562258
   formf:     vps(g=0)=   0.0106403     rhops(g=0)=  -0.0140416
   formf: sum_g vps(g)=   6.1940873 sum_g rhops(g)= -10.0623869
   formf:     vps(g=0)=  -0.0001373     rhops(g=0)=  -0.0060178
   formf: sum_g vps(g)=   0.9974933 sum_g rhops(g)=  -4.3124515
   Delta V(G=0):   0.089060Ry,    2.423434eV

  nfi    ekinc  temph  tempp        etot      enthal       econs       econt    vnhh   xnhh0    vnhp   xnhp0
    1  0.00000    0.0    0.0  -495.72764  -495.72764  -495.72763  -495.72763  0.0000  0.0000  0.0000  0.0000
    2  0.00000    0.0    0.1  -495.72764  -495.72764  -495.72764  -495.72763  0.0000  0.0000  0.0000  0.0000
    3  0.00000    0.0    0.2  -495.72765  -495.72765  -495.72764  -495.72763  0.0000  0.0000  0.0000  0.0000
    4  0.00001    0.0    0.4  -495.72767  -495.72767  -495.72764  -495.72763  0.0000  0.0000  0.0000  0.0000
    5  0.00001    0.0    0.6  -495.72769  -495.72769  -495.72765  -495.72763  0.0000  0.0000  0.0000  0.0000
    6  0.00002    0.0    0.9  -495.72771  -495.72771  -495.72765  -495.72763  0.0000  0.0000  0.0000  0.0000
    7  0.00002    0.0    1.2  -495.72774  -495.72774  -495.72766  -495.72763  0.0000  0.0000  0.0000  0.0000
    8  0.00003    0.0    1.6  -495.72777  -495.72777  -495.72766  -495.72763  0.0000  0.0000  0.0000  0.0000
    9  0.00004    0.0    2.1  -495.72781  -495.72781  -495.72767  -495.72763  0.0000  0.0000  0.0000  0.0000
   10  0.00005    0.0    2.6  -495.72785  -495.72785  -495.72768  -495.72763  0.0000  0.0000  0.0000  0.0000
   11  0.00006    0.0    3.2  -495.72790  -495.72790  -495.72769  -495.72763  0.0000  0.0000  0.0000  0.0000
   12  0.00007    0.0    3.8  -495.72795  -495.72795  -495.72770  -495.72763  0.0000  0.0000  0.0000  0.0000
   13  0.00008    0.0    4.5  -495.72801  -495.72801  -495.72771  -495.72763  0.0000  0.0000  0.0000  0.0000
   14  0.00009    0.0    5.2  -495.72807  -495.72807  -495.72772  -495.72763  0.0000  0.0000  0.0000  0.0000
   15  0.00010    0.0    5.9  -495.72813  -495.72813  -495.72774  -495.72764  0.0000  0.0000  0.0000  0.0000
   16  0.00011    0.0    6.8  -495.72820  -495.72820  -495.72775  -495.72764  0.0000  0.0000  0.0000  0.0000
   17  0.00013    0.0    7.6  -495.72827  -495.72827  -495.72776  -495.72764  0.0000  0.0000  0.0000  0.0000
   18  0.00014    0.0    8.5  -495.72835  -495.72835  -495.72778  -495.72764  0.0000  0.0000  0.0000  0.0000
   19  0.00016    0.0    9.5  -495.72843  -495.72843  -495.72779  -495.72764  0.0000  0.0000  0.0000  0.0000
   20  0.00017    0.0   10.5  -495.72851  -495.72851  -495.72781  -495.72764  0.0000  0.0000  0.0000  0.0000

   writing restart file: .//cp_92.save
   restart file written in    0.121 sec.

   21  0.00019    0.0   11.5  -495.72859  -495.72859  -495.72783  -495.72764  0.0000  0.0000  0.0000  0.0000
   22  0.00021    0.0   12.5  -495.72868  -495.72868  -495.72784  -495.72764  0.0000  0.0000  0.0000  0.0000
   23  0.00023    0.0   13.6  -495.72877  -495.72877  -495.72786  -495.72764  0.0000  0.0000  0.0000  0.0000
   24  0.00025    0.0   14.7  -495.72886  -495.72886  -495.72788  -495.72764  0.0000  0.0000  0.0000  0.0000
   25  0.00027    0.0   15.9  -495.72896  -495.72896  -495.72790  -495.72764  0.0000  0.0000  0.0000  0.0000
   26  0.00029    0.0   17.0  -495.72906  -495.72906  -495.72792  -495.72764  0.0000  0.0000  0.0000  0.0000
   27  0.00031    0.0   18.2  -495.72915  -495.72915  -495.72794  -495.72764  0.0000  0.0000  0.0000  0.0000
   28  0.00032    0.0   19.5  -495.72926  -495.72926  -495.72796  -495.72764  0.0000  0.0000  0.0000  0.0000
   29  0.00034    0.0   20.7  -495.72936  -495.72936  -495.72798  -495.72764  0.0000  0.0000  0.0000  0.0000
   30  0.00036    0.0   22.0  -495.72946  -495.72946  -495.72800  -495.72764  0.0000  0.0000  0.0000  0.0000
   31  0.00038    0.0   23.3  -495.72957  -495.72957  -495.72802  -495.72764  0.0000  0.0000  0.0000  0.0000
   32  0.00040    0.0   24.6  -495.72967  -495.72967  -495.72804  -495.72764  0.0000  0.0000  0.0000  0.0000
   33  0.00042    0.0   25.8  -495.72978  -495.72978  -495.72806  -495.72764  0.0000  0.0000  0.0000  0.0000
   34  0.00045    0.0   27.1  -495.72989  -495.72989  -495.72808  -495.72764  0.0000  0.0000  0.0000  0.0000
   35  0.00047    0.0   28.4  -495.72999  -495.72999  -495.72811  -495.72764  0.0000  0.0000  0.0000  0.0000
   36  0.00049    0.0   29.7  -495.73010  -495.73010  -495.72813  -495.72764  0.0000  0.0000  0.0000  0.0000
   37  0.00051    0.0   30.9  -495.73021  -495.73021  -495.72815  -495.72764  0.0000  0.0000  0.0000  0.0000
   38  0.00053    0.0   32.2  -495.73031  -495.73031  -495.72817  -495.72764  0.0000  0.0000  0.0000  0.0000
   39  0.00055    0.0   33.5  -495.73042  -495.73042  -495.72819  -495.72764  0.0000  0.0000  0.0000  0.0000
   40  0.00057    0.0   34.8  -495.73052  -495.73052  -495.72821  -495.72764  0.0000  0.0000  0.0000  0.0000

   writing restart file: .//cp_92.save
   restart file written in    0.123 sec.

   41  0.00059    0.0   36.1  -495.73063  -495.73063  -495.72823  -495.72764  0.0000  0.0000  0.0000  0.0000
   42  0.00061    0.0   37.4  -495.73073  -495.73073  -495.72825  -495.72764  0.0000  0.0000  0.0000  0.0000
   43  0.00063    0.0   38.6  -495.73083  -495.73083  -495.72827  -495.72764  0.0000  0.0000  0.0000  0.0000
   44  0.00065    0.0   39.8  -495.73093  -495.73093  -495.72829  -495.72764  0.0000  0.0000  0.0000  0.0000
   45  0.00067    0.0   40.9  -495.73103  -495.73103  -495.72831  -495.72764  0.0000  0.0000  0.0000  0.0000
   46  0.00069    0.0   42.0  -495.73112  -495.73112  -495.72833  -495.72764  0.0000  0.0000  0.0000  0.0000
   47  0.00071    0.0   43.1  -495.73122  -495.73122  -495.72835  -495.72764  0.0000  0.0000  0.0000  0.0000
   48  0.00073    0.0   44.2  -495.73131  -495.73131  -495.72837  -495.72764  0.0000  0.0000  0.0000  0.0000
   49  0.00075    0.0   45.3  -495.73139  -495.73139  -495.72839  -495.72764  0.0000  0.0000  0.0000  0.0000
   50  0.00076    0.0   46.3  -495.73148  -495.73148  -495.72840  -495.72764  0.0000  0.0000  0.0000  0.0000
   51  0.00078    0.0   47.3  -495.73156  -495.73156  -495.72841  -495.72764  0.0000  0.0000  0.0000  0.0000
   52  0.00079    0.0   48.3  -495.73163  -495.73163  -495.72842  -495.72764  0.0000  0.0000  0.0000  0.0000
   53  0.00080    0.0   49.2  -495.73171  -495.73171  -495.72844  -495.72764  0.0000  0.0000  0.0000  0.0000
   54  0.00082    0.0   50.1  -495.73178  -495.73178  -495.72845  -495.72764  0.0000  0.0000  0.0000  0.0000
   55  0.00083    0.0   50.9  -495.73185  -495.73185  -495.72846  -495.72764  0.0000  0.0000  0.0000  0.0000
   56  0.00084    0.0   51.6  -495.73191  -495.73191  -495.72848  -495.72764  0.0000  0.0000  0.0000  0.0000
   57  0.00086    0.0   52.3  -495.73197  -495.73197  -495.72849  -495.72764  0.0000  0.0000  0.0000  0.0000
   58  0.00087    0.0   52.9  -495.73202  -495.73202  -495.72851  -495.72764  0.0000  0.0000  0.0000  0.0000
   59  0.00088    0.0   53.5  -495.73207  -495.73207  -495.72852  -495.72764  0.0000  0.0000  0.0000  0.0000
   60  0.00089    0.0   54.0  -495.73212  -495.73212  -495.72853  -495.72764  0.0000  0.0000  0.0000  0.0000

   writing restart file: .//cp_92.save
   restart file written in    0.119 sec.

   61  0.00090    0.0   54.5  -495.73216  -495.73216  -495.72854  -495.72764  0.0000  0.0000  0.0000  0.0000
   62  0.00091    0.0   55.0  -495.73220  -495.73220  -495.72854  -495.72764  0.0000  0.0000  0.0000  0.0000
   63  0.00091    0.0   55.5  -495.73223  -495.73223  -495.72855  -495.72764  0.0000  0.0000  0.0000  0.0000
   64  0.00091    0.0   55.8  -495.73226  -495.73226  -495.72855  -495.72764  0.0000  0.0000  0.0000  0.0000
   65  0.00091    0.0   56.1  -495.73228  -495.73228  -495.72855  -495.72764  0.0000  0.0000  0.0000  0.0000
   66  0.00092    0.0   56.4  -495.73230  -495.73230  -495.72855  -495.72764  0.0000  0.0000  0.0000  0.0000
   67  0.00092    0.0   56.5  -495.73232  -495.73232  -495.72856  -495.72764  0.0000  0.0000  0.0000  0.0000
   68  0.00092    0.0   56.6  -495.73233  -495.73233  -495.72856  -495.72764  0.0000  0.0000  0.0000  0.0000
   69  0.00093    0.0   56.6  -495.73233  -495.73233  -495.72856  -495.72764  0.0000  0.0000  0.0000  0.0000
   70  0.00093    0.0   56.6  -495.73233  -495.73233  -495.72856  -495.72764  0.0000  0.0000  0.0000  0.0000
   71  0.00093    0.0   56.5  -495.73232  -495.73232  -495.72856  -495.72763  0.0000  0.0000  0.0000  0.0000
   72  0.00093    0.0   56.3  -495.73231  -495.73231  -495.72856  -495.72763  0.0000  0.0000  0.0000  0.0000
   73  0.00093    0.0   56.1  -495.73229  -495.73229  -495.72856  -495.72763  0.0000  0.0000  0.0000  0.0000
   74  0.00092    0.0   55.9  -495.73227  -495.73227  -495.72855  -495.72763  0.0000  0.0000  0.0000  0.0000
   75  0.00092    0.0   55.6  -495.73225  -495.73225  -495.72855  -495.72763  0.0000  0.0000  0.0000  0.0000
   76  0.00091    0.0   55.3  -495.73222  -495.73222  -495.72854  -495.72763  0.0000  0.0000  0.0000  0.0000
   77  0.00090    0.0   54.9  -495.73218  -495.73218  -495.72853  -495.72763  0.0000  0.0000  0.0000  0.0000
   78  0.00089    0.0   54.5  -495.73214  -495.73214  -495.72852  -495.72763  0.0000  0.0000  0.0000  0.0000
   79  0.00088    0.0   54.0  -495.73210  -495.73210  -495.72851  -495.72763  0.0000  0.0000  0.0000  0.0000
   80  0.00087    0.0   53.4  -495.73205  -495.73205  -495.72850  -495.72763  0.0000  0.0000  0.0000  0.0000

   writing restart file: .//cp_92.save
   restart file written in    0.119 sec.

   81  0.00086    0.0   52.8  -495.73200  -495.73200  -495.72849  -495.72763  0.0000  0.0000  0.0000  0.0000
   82  0.00085    0.0   52.1  -495.73193  -495.73193  -495.72847  -495.72761  0.0000  0.0000  0.0000  0.0000
   83  0.00084    0.0   51.3  -495.73187  -495.73187  -495.72846  -495.72761  0.0000  0.0000  0.0000  0.0000
   84  0.00083    0.0   50.6  -495.73181  -495.73181  -495.72845  -495.72761  0.0000  0.0000  0.0000  0.0000
   85  0.00082    0.0   49.7  -495.73174  -495.73174  -495.72843  -495.72761  0.0000  0.0000  0.0000  0.0000
   86  0.00081    0.0   48.9  -495.73167  -495.73167  -495.72842  -495.72761  0.0000  0.0000  0.0000  0.0000
   87  0.00080    0.0   48.0  -495.73160  -495.73160  -495.72841  -495.72761  0.0000  0.0000  0.0000  0.0000
   88  0.00078    0.0   47.0  -495.73152  -495.73152  -495.72839  -495.72761  0.0000  0.0000  0.0000  0.0000
   89  0.00077    0.0   46.1  -495.73144  -495.73144  -495.72838  -495.72761  0.0000  0.0000  0.0000  0.0000
   90  0.00075    0.0   45.1  -495.73136  -495.73136  -495.72836  -495.72761  0.0000  0.0000  0.0000  0.0000
   91  0.00073    0.0   44.2  -495.73128  -495.73128  -495.72834  -495.72761  0.0000  0.0000  0.0000  0.0000
   92  0.00071    0.0   43.1  -495.73119  -495.73119  -495.72832  -495.72761  0.0000  0.0000  0.0000  0.0000
   93  0.00069    0.0   42.1  -495.73110  -495.73110  -495.72830  -495.72761  0.0000  0.0000  0.0000  0.0000
   94  0.00067    0.0   41.0  -495.73101  -495.73101  -495.72828  -495.72761  0.0000  0.0000  0.0000  0.0000
   95  0.00066    0.0   39.9  -495.73092  -495.73092  -495.72826  -495.72761  0.0000  0.0000  0.0000  0.0000
   96  0.00064    0.0   38.8  -495.73083  -495.73083  -495.72824  -495.72761  0.0000  0.0000  0.0000  0.0000
   97  0.00062    0.0   37.6  -495.73073  -495.73073  -495.72823  -495.72761  0.0000  0.0000  0.0000  0.0000
   98  0.00061    0.0   36.5  -495.73064  -495.73064  -495.72821  -495.72761  0.0000  0.0000  0.0000  0.0000
   99  0.00059    0.0   35.3  -495.73054  -495.73054  -495.72820  -495.72761  0.0000  0.0000  0.0000  0.0000
  100  0.00057    0.0   34.1  -495.73044  -495.73044  -495.72818  -495.72761  0.0000  0.0000  0.0000  0.0000

   writing restart file: .//cp_92.save
   restart file written in    0.122 sec.

  101  0.00055    0.0   32.9  -495.73035  -495.73035  -495.72816  -495.72761  0.0000  0.0000  0.0000  0.0000
  102  0.00053    0.0   31.8  -495.73025  -495.73025  -495.72814  -495.72761  0.0000  0.0000  0.0000  0.0000
  103  0.00051    0.0   30.6  -495.73015  -495.73015  -495.72812  -495.72761  0.0000  0.0000  0.0000  0.0000
  104  0.00049    0.0   29.5  -495.73006  -495.73006  -495.72810  -495.72761  0.0000  0.0000  0.0000  0.0000
  105  0.00047    0.0   28.4  -495.72996  -495.72996  -495.72808  -495.72761  0.0000  0.0000  0.0000  0.0000
  106  0.00045    0.0   27.3  -495.72987  -495.72987  -495.72805  -495.72761  0.0000  0.0000  0.0000  0.0000
  107  0.00043    0.0   26.2  -495.72977  -495.72977  -495.72803  -495.72760  0.0000  0.0000  0.0000  0.0000
  108  0.00041    0.0   25.1  -495.72968  -495.72968  -495.72801  -495.72760  0.0000  0.0000  0.0000  0.0000
  109  0.00039    0.0   24.0  -495.72959  -495.72959  -495.72800  -495.72760  0.0000  0.0000  0.0000  0.0000
  110  0.00037    0.0   22.9  -495.72950  -495.72950  -495.72798  -495.72760  0.0000  0.0000  0.0000  0.0000
  111  0.00036    0.0   21.9  -495.72942  -495.72942  -495.72796  -495.72760  0.0000  0.0000  0.0000  0.0000
  112  0.00034    0.0   20.8  -495.72933  -495.72933  -495.72795  -495.72760  0.0000  0.0000  0.0000  0.0000
  113  0.00033    0.0   19.8  -495.72925  -495.72925  -495.72793  -495.72760  0.0000  0.0000  0.0000  0.0000
  114  0.00031    0.0   18.9  -495.72917  -495.72917  -495.72791  -495.72760  0.0000  0.0000  0.0000  0.0000
  115  0.00029    0.0   18.0  -495.72909  -495.72909  -495.72790  -495.72760  0.0000  0.0000  0.0000  0.0000
  116  0.00028    0.0   17.1  -495.72902  -495.72902  -495.72788  -495.72760  0.0000  0.0000  0.0000  0.0000
  117  0.00026    0.0   16.3  -495.72895  -495.72895  -495.72787  -495.72760  0.0000  0.0000  0.0000  0.0000
  118  0.00025    0.0   15.5  -495.72888  -495.72888  -495.72785  -495.72760  0.0000  0.0000  0.0000  0.0000
  119  0.00023    0.0   14.8  -495.72882  -495.72882  -495.72783  -495.72760  0.0000  0.0000  0.0000  0.0000
  120  0.00022    0.0   14.1  -495.72876  -495.72876  -495.72782  -495.72760  0.0000  0.0000  0.0000  0.0000

   writing restart file: .//cp_92.save
   restart file written in    0.120 sec.

  121  0.00020    0.0   13.4  -495.72870  -495.72870  -495.72781  -495.72760  0.0000  0.0000  0.0000  0.0000
  122  0.00019    0.0   12.8  -495.72864  -495.72864  -495.72779  -495.72760  0.0000  0.0000  0.0000  0.0000
  123  0.00018    0.0   12.2  -495.72860  -495.72860  -495.72778  -495.72760  0.0000  0.0000  0.0000  0.0000
  124  0.00017    0.0   11.7  -495.72855  -495.72855  -495.72777  -495.72760  0.0000  0.0000  0.0000  0.0000
  125  0.00016    0.0   11.2  -495.72851  -495.72851  -495.72776  -495.72760  0.0000  0.0000  0.0000  0.0000
  126  0.00015    0.0   10.8  -495.72847  -495.72847  -495.72776  -495.72760  0.0000  0.0000  0.0000  0.0000
  127  0.00015    0.0   10.4  -495.72844  -495.72844  -495.72775  -495.72760  0.0000  0.0000  0.0000  0.0000
  128  0.00014    0.0   10.1  -495.72841  -495.72841  -495.72774  -495.72760  0.0000  0.0000  0.0000  0.0000
  129  0.00013    0.0    9.8  -495.72839  -495.72839  -495.72773  -495.72760  0.0000  0.0000  0.0000  0.0000
  130  0.00013    0.0    9.6  -495.72837  -495.72837  -495.72773  -495.72760  0.0000  0.0000  0.0000  0.0000
  131  0.00012    0.0    9.5  -495.72836  -495.72836  -495.72772  -495.72760  0.0000  0.0000  0.0000  0.0000
  132  0.00012    0.0    9.4  -495.72835  -495.72835  -495.72772  -495.72760  0.0000  0.0000  0.0000  0.0000
  133  0.00012    0.0    9.3  -495.72834  -495.72834  -495.72772  -495.72760  0.0000  0.0000  0.0000  0.0000
  134  0.00011    0.0    9.4  -495.72834  -495.72834  -495.72772  -495.72760  0.0000  0.0000  0.0000  0.0000
  135  0.00011    0.0    9.4  -495.72834  -495.72834  -495.72772  -495.72760  0.0000  0.0000  0.0000  0.0000
  136  0.00011    0.0    9.5  -495.72835  -495.72835  -495.72772  -495.72760  0.0000  0.0000  0.0000  0.0000
  137  0.00012    0.0    9.7  -495.72837  -495.72837  -495.72772  -495.72760  0.0000  0.0000  0.0000  0.0000
  138  0.00012    0.0    9.9  -495.72838  -495.72838  -495.72772  -495.72760  0.0000  0.0000  0.0000  0.0000
  139  0.00012    0.0   10.2  -495.72841  -495.72841  -495.72773  -495.72760  0.0000  0.0000  0.0000  0.0000
  140  0.00013    0.0   10.5  -495.72843  -495.72843  -495.72773  -495.72760  0.0000  0.0000  0.0000  0.0000

   writing restart file: .//cp_92.save
   restart file written in    0.120 sec.

  141  0.00013    0.0   10.9  -495.72846  -495.72846  -495.72773  -495.72760  0.0000  0.0000  0.0000  0.0000
  142  0.00014    0.0   11.4  -495.72850  -495.72850  -495.72774  -495.72760  0.0000  0.0000  0.0000  0.0000
  143  0.00014    0.0   11.9  -495.72854  -495.72854  -495.72775  -495.72760  0.0000  0.0000  0.0000  0.0000
  144  0.00015    0.0   12.4  -495.72858  -495.72858  -495.72776  -495.72760  0.0000  0.0000  0.0000  0.0000
  145  0.00016    0.0   13.0  -495.72863  -495.72863  -495.72776  -495.72760  0.0000  0.0000  0.0000  0.0000
  146  0.00017    0.0   13.6  -495.72868  -495.72868  -495.72777  -495.72760  0.0000  0.0000  0.0000  0.0000
  147  0.00018    0.0   14.3  -495.72873  -495.72873  -495.72779  -495.72760  0.0000  0.0000  0.0000  0.0000
  148  0.00020    0.0   14.9  -495.72879  -495.72879  -495.72780  -495.72760  0.0000  0.0000  0.0000  0.0000
  149  0.00021    0.0   15.7  -495.72886  -495.72886  -495.72781  -495.72760  0.0000  0.0000  0.0000  0.0000
  150  0.00023    0.0   16.4  -495.72892  -495.72892  -495.72783  -495.72760  0.0000  0.0000  0.0000  0.0000
  151  0.00024    0.0   17.2  -495.72899  -495.72899  -495.72784  -495.72760  0.0000  0.0000  0.0000  0.0000
  152  0.00026    0.0   18.1  -495.72906  -495.72906  -495.72786  -495.72760  0.0000  0.0000  0.0000  0.0000
  153  0.00027    0.0   19.0  -495.72914  -495.72914  -495.72787  -495.72760  0.0000  0.0000  0.0000  0.0000
  154  0.00029    0.0   19.9  -495.72921  -495.72921  -495.72789  -495.72760  0.0000  0.0000  0.0000  0.0000
  155  0.00030    0.0   20.8  -495.72929  -495.72929  -495.72791  -495.72760  0.0000  0.0000  0.0000  0.0000
  156  0.00032    0.0   21.8  -495.72937  -495.72937  -495.72792  -495.72760  0.0000  0.0000  0.0000  0.0000
  157  0.00034    0.0   22.8  -495.72946  -495.72946  -495.72794  -495.72760  0.0000  0.0000  0.0000  0.0000
  158  0.00035    0.0   23.9  -495.72954  -495.72954  -495.72796  -495.72760  0.0000  0.0000  0.0000  0.0000
  159  0.00037    0.0   24.9  -495.72963  -495.72963  -495.72798  -495.72760  0.0000  0.0000  0.0000  0.0000
  160  0.00039    0.0   25.9  -495.72972  -495.72972  -495.72800  -495.72760  0.0000  0.0000  0.0000  0.0000

   writing restart file: .//cp_92.save
   restart file written in    0.121 sec.

  161  0.00042    0.0   26.9  -495.72981  -495.72981  -495.72802  -495.72760  0.0000  0.0000  0.0000  0.0000
  162  0.00044    0.0   28.0  -495.72990  -495.72990  -495.72804  -495.72760  0.0000  0.0000  0.0000  0.0000
  163  0.00046    0.0   29.0  -495.72999  -495.72999  -495.72806  -495.72760  0.0000  0.0000  0.0000  0.0000
  164  0.00048    0.0   30.1  -495.73009  -495.73009  -495.72809  -495.72761  0.0000  0.0000  0.0000  0.0000
  165  0.00050    0.0   31.1  -495.73018  -495.73018  -495.72811  -495.72761  0.0000  0.0000  0.0000  0.0000
  166  0.00052    0.0   32.2  -495.73027  -495.73027  -495.72813  -495.72761  0.0000  0.0000  0.0000  0.0000
  167  0.00054    0.0   33.3  -495.73036  -495.73036  -495.72815  -495.72761  0.0000  0.0000  0.0000  0.0000
  168  0.00056    0.0   34.4  -495.73046  -495.73046  -495.72817  -495.72761  0.0000  0.0000  0.0000  0.0000
  169  0.00058    0.0   35.5  -495.73055  -495.73055  -495.72819  -495.72761  0.0000  0.0000  0.0000  0.0000
  170  0.00060    0.0   36.5  -495.73064  -495.73064  -495.72821  -495.72761  0.0000  0.0000  0.0000  0.0000
  171  0.00062    0.0   37.6  -495.73073  -495.73073  -495.72823  -495.72761  0.0000  0.0000  0.0000  0.0000
  172  0.00064    0.0   38.6  -495.73082  -495.73082  -495.72825  -495.72761  0.0000  0.0000  0.0000  0.0000
  173  0.00066    0.0   39.6  -495.73090  -495.73090  -495.72827  -495.72761  0.0000  0.0000  0.0000  0.0000
  174  0.00068    0.0   40.6  -495.73099  -495.73099  -495.72829  -495.72761  0.0000  0.0000  0.0000  0.0000
  175  0.00070    0.0   41.6  -495.73107  -495.73107  -495.72830  -495.72761  0.0000  0.0000  0.0000  0.0000
  176  0.00071    0.0   42.6  -495.73115  -495.73115  -495.72832  -495.72761  0.0000  0.0000  0.0000  0.0000
  177  0.00073    0.0   43.5  -495.73123  -495.73123  -495.72834  -495.72761  0.0000  0.0000  0.0000  0.0000
  178  0.00075    0.0   44.4  -495.73131  -495.73131  -495.72836  -495.72761  0.0000  0.0000  0.0000  0.0000
  179  0.00076    0.0   45.2  -495.73138  -495.73138  -495.72837  -495.72761  0.0000  0.0000  0.0000  0.0000
  180  0.00078    0.0   46.0  -495.73145  -495.73145  -495.72839  -495.72761  0.0000  0.0000  0.0000  0.0000

   writing restart file: .//cp_92.save
   restart file written in    0.121 sec.

  181  0.00080    0.0   46.8  -495.73152  -495.73152  -495.72841  -495.72761  0.0000  0.0000  0.0000  0.0000
  182  0.00082    0.0   47.5  -495.73158  -495.73158  -495.72843  -495.72761  0.0000  0.0000  0.0000  0.0000
  183  0.00083    0.0   48.2  -495.73165  -495.73165  -495.72844  -495.72761  0.0000  0.0000  0.0000  0.0000
  184  0.00084    0.0   48.9  -495.73170  -495.73170  -495.72845  -495.72761  0.0000  0.0000  0.0000  0.0000
  185  0.00085    0.0   49.5  -495.73176  -495.73176  -495.72846  -495.72761  0.0000  0.0000  0.0000  0.0000
  186  0.00086    0.0   50.2  -495.73181  -495.73181  -495.72847  -495.72761  0.0000  0.0000  0.0000  0.0000
  187  0.00087    0.0   50.8  -495.73185  -495.73185  -495.72847  -495.72761  0.0000  0.0000  0.0000  0.0000
  188  0.00087    0.0   51.4  -495.73190  -495.73190  -495.72848  -495.72761  0.0000  0.0000  0.0000  0.0000
  189  0.00087    0.0   51.9  -495.73194  -495.73194  -495.72848  -495.72761  0.0000  0.0000  0.0000  0.0000
  190  0.00088    0.0   52.4  -495.73197  -495.73197  -495.72849  -495.72761  0.0000  0.0000  0.0000  0.0000
  191  0.00088    0.0   52.8  -495.73200  -495.73200  -495.72849  -495.72761  0.0000  0.0000  0.0000  0.0000
  192  0.00089    0.0   53.0  -495.73203  -495.73203  -495.72850  -495.72761  0.0000  0.0000  0.0000  0.0000
  193  0.00090    0.0   53.2  -495.73205  -495.73205  -495.72851  -495.72761  0.0000  0.0000  0.0000  0.0000
  194  0.00091    0.0   53.4  -495.73206  -495.73206  -495.72852  -495.72761  0.0000  0.0000  0.0000  0.0000
  195  0.00091    0.0   53.5  -495.73208  -495.73208  -495.72852  -495.72761  0.0000  0.0000  0.0000  0.0000
  196  0.00091    0.0   53.5  -495.73208  -495.73208  -495.72852  -495.72761  0.0000  0.0000  0.0000  0.0000
  197  0.00091    0.0   53.6  -495.73209  -495.73209  -495.72852  -495.72761  0.0000  0.0000  0.0000  0.0000
  198  0.00091    0.0   53.7  -495.73209  -495.73209  -495.72852  -495.72761  0.0000  0.0000  0.0000  0.0000
  199  0.00090    0.0   53.7  -495.73208  -495.73208  -495.72851  -495.72761  0.0000  0.0000  0.0000  0.0000

 * Physical Quantities at step:   200

   from rhoofr: total integrated electronic density
   spin up
   in g-space =   60.000000   in r-space =  60.000000
   spin down
   in g-space =   50.000000   in r-space =  50.000000


                total energy =     -495.73207 Hartree a.u.
              kinetic energy =      107.07538 Hartree a.u.
        electrostatic energy =     -672.73051 Hartree a.u.
                         esr =        0.00000 Hartree a.u.
                       eself =      869.69417 Hartree a.u.
      pseudopotential energy =       86.44941 Hartree a.u.
  n-l pseudopotential energy =       61.71586 Hartree a.u.
 exchange-correlation energy =      -78.24221 Hartree a.u.
           average potential =        0.00000 Hartree a.u.



   Eigenvalues (eV), kp =   1 , spin =  1

  -66.91  -66.89  -66.83  -66.81  -38.52  -38.40  -38.35  -38.32  -38.30  -38.24
  -38.23  -38.21  -38.21  -38.17  -38.11  -38.07  -38.05  -38.01  -13.23  -11.89
  -11.86  -11.84  -11.63  -11.59  -11.56  -11.30   -0.66   -0.56   -0.39   -0.09
    0.74    0.77    0.98    1.36    1.42    1.45    1.54    1.56    1.87    2.00
    2.54    3.05    3.11    3.21    3.46    3.52    3.60    4.30    4.37    4.40
    5.10    5.13    5.48    5.57    5.66    5.80    5.86    5.89    6.13    6.13

   Eigenvalues (eV), kp =   1 , spin =  2

  -64.17  -64.15  -63.98  -63.93  -38.52  -38.39  -35.79  -35.70  -35.65  -35.57
  -35.50  -35.47  -35.44  -35.38  -35.31  -35.29  -35.16  -35.13  -13.23  -11.95
  -11.91  -11.89  -11.67  -11.63  -11.61  -11.36   -0.19   -0.10    0.10    0.34
    1.09    1.26    1.28    1.53    1.58    1.86    2.03    2.04    2.28    2.38
    2.93    3.08    3.11    3.27    3.43    3.50    3.60    4.25    4.31    4.35

   Allocated memory (kb) =     49420

   CELL_PARAMETERS
   11.12379848    5.56190117    2.78150882
    0.00000000    9.63349246    1.60590576
    0.00000000    0.00000000    9.05243067

   System Density [g/cm^3] :     4.0416


   Center of mass square displacement (a.u.):   0.000000

   ATOMIC_POSITIONS
   Li   0.111216E+02  0.642154E+01  0.906289E+01
   Li   0.167057E+02  0.640542E+01  0.900063E+01
   Cr   0.167004E+02  0.966216E+01  0.134047E+02
   Cr   0.194922E+02  0.144299E+02  0.137048E+02
   Cr   0.222657E+02  0.963336E+01  0.134240E+02
   Cr   0.250042E+02  0.144307E+02  0.137133E+02
   O    0.138872E+02  0.786844E+01  0.116760E+02
   O    0.167168E+02  0.129933E+02  0.118752E+02
   O    0.194743E+02  0.790530E+01  0.116457E+02
   O    0.222073E+02  0.129496E+02  0.118824E+02
   O    0.195240E+02  0.111184E+02  0.152403E+02
   O    0.222323E+02  0.161604E+02  0.155075E+02
   O    0.250061E+02  0.110648E+02  0.152782E+02
   O    0.278578E+02  0.162036E+02  0.154536E+02

   ATOMIC_VELOCITIES
   Li   0.324162E-04  0.189595E-04  0.599657E-04
   Li  -0.249139E-04 -0.859598E-05  0.745347E-04
   Cr  -0.246755E-04 -0.202330E-04 -0.296537E-04
   Cr   0.111608E-04  0.436773E-04 -0.431673E-04
   Cr   0.767482E-04 -0.454238E-04 -0.389168E-04
   Cr  -0.546529E-04  0.280990E-04 -0.476538E-04
   O    0.401015E-04 -0.877852E-05 -0.812934E-06
   O    0.319393E-04 -0.976577E-05 -0.123071E-03
   O   -0.136711E-05  0.410994E-05 -0.519953E-04
   O   -0.158848E-04 -0.449187E-05 -0.774833E-04
   O   -0.374690E-04 -0.173839E-04  0.252254E-03
   O   -0.177020E-04  0.282359E-04  0.101009E-03
   O   -0.702651E-05 -0.208876E-04  0.206997E-03
   O   -0.237323E-04  0.457825E-05  0.152756E-03



   Partial temperatures (for each ionic specie) 
   Species  Temp (K)   Mean Square Displacement (a.u.)
        1       7.50     0.0082
        2      53.15     0.0050
        3      65.56     0.0065

  nfi    ekinc  temph  tempp        etot      enthal       econs       econt    vnhh   xnhh0    vnhp   xnhp0
  200  0.00089    0.0   53.7  -495.73207  -495.73207  -495.72850  -495.72761  0.0000  0.0000  0.0000  0.0000

   writing restart file: .//cp_92.save
   restart file written in    0.122 sec.

  201  0.00088    0.0   53.7  -495.73206  -495.73206  -495.72849  -495.72761  0.0000  0.0000  0.0000  0.0000
  202  0.00087    0.0   53.5  -495.73204  -495.73204  -495.72848  -495.72761  0.0000  0.0000  0.0000  0.0000
  203  0.00086    0.0   53.3  -495.73202  -495.73202  -495.72847  -495.72761  0.0000  0.0000  0.0000  0.0000
  204  0.00086    0.0   53.0  -495.73199  -495.73199  -495.72847  -495.72761  0.0000  0.0000  0.0000  0.0000
  205  0.00086    0.0   52.5  -495.73197  -495.73197  -495.72847  -495.72762  0.0000  0.0000  0.0000  0.0000
  206  0.00085    0.0   52.1  -495.73193  -495.73193  -495.72847  -495.72762  0.0000  0.0000  0.0000  0.0000
  207  0.00085    0.0   51.5  -495.73189  -495.73189  -495.72847  -495.72762  0.0000  0.0000  0.0000  0.0000
  208  0.00084    0.0   50.9  -495.73185  -495.73185  -495.72846  -495.72762  0.0000  0.0000  0.0000  0.0000
  209  0.00084    0.0   50.4  -495.73180  -495.73180  -495.72846  -495.72762  0.0000  0.0000  0.0000  0.0000
  210  0.00083    0.0   49.8  -495.73175  -495.73175  -495.72844  -495.72762  0.0000  0.0000  0.0000  0.0000
  211  0.00081    0.0   49.2  -495.73170  -495.73170  -495.72843  -495.72762  0.0000  0.0000  0.0000  0.0000
  212  0.00079    0.0   48.6  -495.73164  -495.73164  -495.72841  -495.72762  0.0000  0.0000  0.0000  0.0000
  213  0.00078    0.0   47.9  -495.73158  -495.73158  -495.72840  -495.72762  0.0000  0.0000  0.0000  0.0000
  214  0.00076    0.0   47.2  -495.73152  -495.73152  -495.72838  -495.72762  0.0000  0.0000  0.0000  0.0000
  215  0.00074    0.0   46.4  -495.73145  -495.73145  -495.72836  -495.72762  0.0000  0.0000  0.0000  0.0000
  216  0.00073    0.0   45.6  -495.73138  -495.73138  -495.72835  -495.72762  0.0000  0.0000  0.0000  0.0000
  217  0.00071    0.0   44.7  -495.73131  -495.73131  -495.72833  -495.72762  0.0000  0.0000  0.0000  0.0000
  218  0.00070    0.0   43.8  -495.73124  -495.73124  -495.72832  -495.72762  0.0000  0.0000  0.0000  0.0000
  219  0.00069    0.0   42.8  -495.73116  -495.73116  -495.72831  -495.72762  0.0000  0.0000  0.0000  0.0000
  220  0.00067    0.0   41.8  -495.73108  -495.73108  -495.72830  -495.72763  0.0000  0.0000  0.0000  0.0000

   writing restart file: .//cp_92.save
   restart file written in    0.121 sec.

  221  0.00066    0.0   40.8  -495.73100  -495.73100  -495.72829  -495.72763  0.0000  0.0000  0.0000  0.0000
  222  0.00065    0.0   39.7  -495.73091  -495.73091  -495.72827  -495.72763  0.0000  0.0000  0.0000  0.0000
  223  0.00063    0.0   38.6  -495.73083  -495.73083  -495.72826  -495.72763  0.0000  0.0000  0.0000  0.0000
  224  0.00062    0.0   37.5  -495.73074  -495.73074  -495.72824  -495.72762  0.0000  0.0000  0.0000  0.0000
  225  0.00061    0.0   36.4  -495.73065  -495.73065  -495.72823  -495.72762  0.0000  0.0000  0.0000  0.0000
  226  0.00059    0.0   35.3  -495.73056  -495.73056  -495.72821  -495.72762  0.0000  0.0000  0.0000  0.0000
  227  0.00057    0.0   34.2  -495.73046  -495.73046  -495.72819  -495.72762  0.0000  0.0000  0.0000  0.0000
  228  0.00055    0.0   33.1  -495.73037  -495.73037  -495.72817  -495.72762  0.0000  0.0000  0.0000  0.0000
  229  0.00053    0.0   32.0  -495.73028  -495.73028  -495.72815  -495.72762  0.0000  0.0000  0.0000  0.0000
  230  0.00050    0.0   31.0  -495.73019  -495.73019  -495.72813  -495.72762  0.0000  0.0000  0.0000  0.0000
  231  0.00048    0.0   29.9  -495.73009  -495.73009  -495.72810  -495.72762  0.0000  0.0000  0.0000  0.0000
  232  0.00046    0.0   28.8  -495.73000  -495.73000  -495.72808  -495.72762  0.0000  0.0000  0.0000  0.0000
  233  0.00044    0.0   27.7  -495.72990  -495.72990  -495.72806  -495.72762  0.0000  0.0000  0.0000  0.0000
  234  0.00042    0.0   26.5  -495.72981  -495.72981  -495.72805  -495.72762  0.0000  0.0000  0.0000  0.0000
  235  0.00041    0.0   25.3  -495.72972  -495.72972  -495.72804  -495.72762  0.0000  0.0000  0.0000  0.0000
  236  0.00040    0.0   24.0  -495.72963  -495.72963  -495.72803  -495.72762  0.0000  0.0000  0.0000  0.0000
  237  0.00040    0.0   22.8  -495.72953  -495.72953  -495.72802  -495.72762  0.0000  0.0000  0.0000  0.0000
  238  0.00038    0.0   21.6  -495.72944  -495.72944  -495.72801  -495.72762  0.0000  0.0000  0.0000  0.0000
  239  0.00037    0.0   20.5  -495.72936  -495.72936  -495.72799  -495.72762  0.0000  0.0000  0.0000  0.0000
  240  0.00035    0.0   19.5  -495.72927  -495.72927  -495.72797  -495.72762  0.0000  0.0000  0.0000  0.0000

   writing restart file: .//cp_92.save
   restart file written in    0.121 sec.

  241  0.00033    0.0   18.5  -495.72918  -495.72918  -495.72795  -495.72762  0.0000  0.0000  0.0000  0.0000
  242  0.00030    0.0   17.6  -495.72910  -495.72910  -495.72793  -495.72762  0.0000  0.0000  0.0000  0.0000
  243  0.00028    0.0   16.8  -495.72902  -495.72902  -495.72790  -495.72762  0.0000  0.0000  0.0000  0.0000
  244  0.00026    0.0   15.9  -495.72894  -495.72894  -495.72788  -495.72762  0.0000  0.0000  0.0000  0.0000
  245  0.00024    0.0   15.0  -495.72886  -495.72886  -495.72786  -495.72762  0.0000  0.0000  0.0000  0.0000
  246  0.00023    0.0   14.1  -495.72879  -495.72879  -495.72785  -495.72762  0.0000  0.0000  0.0000  0.0000
  247  0.00021    0.0   13.2  -495.72871  -495.72871  -495.72784  -495.72762  0.0000  0.0000  0.0000  0.0000
  248  0.00021    0.0   12.3  -495.72865  -495.72865  -495.72783  -495.72762  0.0000  0.0000  0.0000  0.0000
  249  0.00020    0.0   11.4  -495.72858  -495.72858  -495.72782  -495.72762  0.0000  0.0000  0.0000  0.0000
  250  0.00019    0.0   10.6  -495.72852  -495.72852  -495.72781  -495.72762  0.0000  0.0000  0.0000  0.0000
  251  0.00018    0.0    9.8  -495.72846  -495.72846  -495.72781  -495.72762  0.0000  0.0000  0.0000  0.0000
  252  0.00017    0.0    9.1  -495.72840  -495.72840  -495.72780  -495.72762  0.0000  0.0000  0.0000  0.0000
  253  0.00016    0.0    8.5  -495.72835  -495.72835  -495.72778  -495.72762  0.0000  0.0000  0.0000  0.0000
  254  0.00015    0.0    8.0  -495.72831  -495.72831  -495.72777  -495.72762  0.0000  0.0000  0.0000  0.0000
  255  0.00014    0.0    7.6  -495.72826  -495.72826  -495.72776  -495.72762  0.0000  0.0000  0.0000  0.0000
  256  0.00013    0.0    7.1  -495.72822  -495.72822  -495.72775  -495.72762  0.0000  0.0000  0.0000  0.0000
  257  0.00012    0.0    6.7  -495.72819  -495.72819  -495.72774  -495.72762  0.0000  0.0000  0.0000  0.0000
  258  0.00011    0.0    6.4  -495.72816  -495.72816  -495.72773  -495.72762  0.0000  0.0000  0.0000  0.0000
  259  0.00010    0.0    6.1  -495.72813  -495.72813  -495.72773  -495.72762  0.0000  0.0000  0.0000  0.0000
  260  0.00010    0.0    5.8  -495.72811  -495.72811  -495.72772  -495.72762  0.0000  0.0000  0.0000  0.0000

   writing restart file: .//cp_92.save
   restart file written in    0.122 sec.

  261  0.00010    0.0    5.5  -495.72809  -495.72809  -495.72772  -495.72762  0.0000  0.0000  0.0000  0.0000
  262  0.00009    0.0    5.4  -495.72807  -495.72807  -495.72772  -495.72762  0.0000  0.0000  0.0000  0.0000
  263  0.00009    0.0    5.3  -495.72806  -495.72806  -495.72771  -495.72762  0.0000  0.0000  0.0000  0.0000
  264  0.00009    0.0    5.2  -495.72806  -495.72806  -495.72771  -495.72762  0.0000  0.0000  0.0000  0.0000
  265  0.00009    0.0    5.2  -495.72806  -495.72806  -495.72771  -495.72762  0.0000  0.0000  0.0000  0.0000
  266  0.00009    0.0    5.3  -495.72806  -495.72806  -495.72771  -495.72762  0.0000  0.0000  0.0000  0.0000
  267  0.00009    0.0    5.4  -495.72807  -495.72807  -495.72771  -495.72762  0.0000  0.0000  0.0000  0.0000
  268  0.00009    0.0    5.6  -495.72808  -495.72808  -495.72771  -495.72762  0.0000  0.0000  0.0000  0.0000
  269  0.00010    0.0    5.8  -495.72810  -495.72810  -495.72772  -495.72762  0.0000  0.0000  0.0000  0.0000
  270  0.00010    0.0    6.0  -495.72812  -495.72812  -495.72772  -495.72762  0.0000  0.0000  0.0000  0.0000
  271  0.00010    0.0    6.3  -495.72815  -495.72815  -495.72773  -495.72762  0.0000  0.0000  0.0000  0.0000
  272  0.00011    0.0    6.7  -495.72818  -495.72818  -495.72773  -495.72762  0.0000  0.0000  0.0000  0.0000
  273  0.00012    0.0    7.1  -495.72821  -495.72821  -495.72774  -495.72762  0.0000  0.0000  0.0000  0.0000
  274  0.00012    0.0    7.6  -495.72825  -495.72825  -495.72775  -495.72762  0.0000  0.0000  0.0000  0.0000
  275  0.00013    0.0    8.1  -495.72829  -495.72829  -495.72775  -495.72762  0.0000  0.0000  0.0000  0.0000
  276  0.00014    0.0    8.7  -495.72834  -495.72834  -495.72776  -495.72762  0.0000  0.0000  0.0000  0.0000
  277  0.00015    0.0    9.3  -495.72839  -495.72839  -495.72777  -495.72762  0.0000  0.0000  0.0000  0.0000
  278  0.00016    0.0   10.0  -495.72844  -495.72844  -495.72778  -495.72762  0.0000  0.0000  0.0000  0.0000
  279  0.00016    0.0   10.7  -495.72850  -495.72850  -495.72779  -495.72762  0.0000  0.0000  0.0000  0.0000
  280  0.00017    0.0   11.5  -495.72856  -495.72856  -495.72780  -495.72762  0.0000  0.0000  0.0000  0.0000

   writing restart file: .//cp_92.save
   restart file written in    0.119 sec.

  281  0.00018    0.0   12.3  -495.72862  -495.72862  -495.72781  -495.72762  0.0000  0.0000  0.0000  0.0000
  282  0.00019    0.0   13.1  -495.72869  -495.72869  -495.72782  -495.72762  0.0000  0.0000  0.0000  0.0000
  283  0.00021    0.0   13.9  -495.72876  -495.72876  -495.72783  -495.72762  0.0000  0.0000  0.0000  0.0000
  284  0.00022    0.0   14.8  -495.72883  -495.72883  -495.72784  -495.72762  0.0000  0.0000  0.0000  0.0000
  285  0.00024    0.0   15.7  -495.72890  -495.72890  -495.72786  -495.72762  0.0000  0.0000  0.0000  0.0000
  286  0.00025    0.0   16.6  -495.72898  -495.72898  -495.72787  -495.72762  0.0000  0.0000  0.0000  0.0000
  287  0.00027    0.0   17.5  -495.72906  -495.72906  -495.72789  -495.72762  0.0000  0.0000  0.0000  0.0000
  288  0.00029    0.0   18.5  -495.72914  -495.72914  -495.72791  -495.72762  0.0000  0.0000  0.0000  0.0000
  289  0.00030    0.0   19.6  -495.72922  -495.72922  -495.72792  -495.72762  0.0000  0.0000  0.0000  0.0000
  290  0.00031    0.0   20.6  -495.72931  -495.72931  -495.72794  -495.72762  0.0000  0.0000  0.0000  0.0000
  291  0.00033    0.0   21.7  -495.72939  -495.72939  -495.72795  -495.72762  0.0000  0.0000  0.0000  0.0000
  292  0.00034    0.0   22.9  -495.72948  -495.72948  -495.72796  -495.72762  0.0000  0.0000  0.0000  0.0000
  293  0.00035    0.0   24.0  -495.72957  -495.72957  -495.72797  -495.72762  0.0000  0.0000  0.0000  0.0000
  294  0.00037    0.0   25.2  -495.72966  -495.72966  -495.72799  -495.72762  0.0000  0.0000  0.0000  0.0000
  295  0.00038    0.0   26.3  -495.72975  -495.72975  -495.72800  -495.72762  0.0000  0.0000  0.0000  0.0000
  296  0.00040    0.0   27.4  -495.72985  -495.72985  -495.72802  -495.72762  0.0000  0.0000  0.0000  0.0000
  297  0.00042    0.0   28.5  -495.72994  -495.72994  -495.72804  -495.72762  0.0000  0.0000  0.0000  0.0000
  298  0.00044    0.0   29.6  -495.73003  -495.73003  -495.72806  -495.72762  0.0000  0.0000  0.0000  0.0000
  299  0.00046    0.0   30.7  -495.73013  -495.73013  -495.72809  -495.72762  0.0000  0.0000  0.0000  0.0000
  300  0.00048    0.0   31.8  -495.73022  -495.73022  -495.72811  -495.72762  0.0000  0.0000  0.0000  0.0000

   writing restart file: .//cp_92.save
   restart file written in    0.120 sec.

  301  0.00050    0.0   32.9  -495.73031  -495.73031  -495.72813  -495.72762  0.0000  0.0000  0.0000  0.0000
  302  0.00052    0.0   34.0  -495.73040  -495.73040  -495.72814  -495.72762  0.0000  0.0000  0.0000  0.0000
  303  0.00054    0.0   35.1  -495.73050  -495.73050  -495.72816  -495.72762  0.0000  0.0000  0.0000  0.0000
  304  0.00055    0.0   36.2  -495.73059  -495.73059  -495.72818  -495.72762  0.0000  0.0000  0.0000  0.0000
  305  0.00057    0.0   37.4  -495.73068  -495.73068  -495.72819  -495.72762  0.0000  0.0000  0.0000  0.0000
  306  0.00058    0.0   38.5  -495.73076  -495.73076  -495.72821  -495.72762  0.0000  0.0000  0.0000  0.0000
  307  0.00060    0.0   39.5  -495.73085  -495.73085  -495.72822  -495.72762  0.0000  0.0000  0.0000  0.0000
  308  0.00062    0.0   40.6  -495.73094  -495.73094  -495.72824  -495.72762  0.0000  0.0000  0.0000  0.0000
  309  0.00063    0.0   41.6  -495.73102  -495.73102  -495.72826  -495.72762  0.0000  0.0000  0.0000  0.0000
  310  0.00065    0.0   42.5  -495.73110  -495.73110  -495.72828  -495.72762  0.0000  0.0000  0.0000  0.0000
  311  0.00067    0.0   43.4  -495.73118  -495.73118  -495.72830  -495.72762  0.0000  0.0000  0.0000  0.0000
  312  0.00069    0.0   44.3  -495.73126  -495.73126  -495.72832  -495.72762  0.0000  0.0000  0.0000  0.0000
  313  0.00071    0.0   45.1  -495.73133  -495.73133  -495.72833  -495.72762  0.0000  0.0000  0.0000  0.0000
  314  0.00073    0.0   45.9  -495.73140  -495.73140  -495.72835  -495.72762  0.0000  0.0000  0.0000  0.0000
  315  0.00074    0.0   46.7  -495.73147  -495.73147  -495.72836  -495.72762  0.0000  0.0000  0.0000  0.0000
  316  0.00076    0.0   47.5  -495.73154  -495.73154  -495.72838  -495.72762  0.0000  0.0000  0.0000  0.0000
  317  0.00077    0.0   48.2  -495.73160  -495.73160  -495.72839  -495.72762  0.0000  0.0000  0.0000  0.0000
  318  0.00079    0.0   48.9  -495.73166  -495.73166  -495.72840  -495.72762  0.0000  0.0000  0.0000  0.0000
  319  0.00080    0.0   49.6  -495.73172  -495.73172  -495.72842  -495.72762  0.0000  0.0000  0.0000  0.0000
  320  0.00081    0.0   50.2  -495.73177  -495.73177  -495.72843  -495.72762  0.0000  0.0000  0.0000  0.0000

   writing restart file: .//cp_92.save
   restart file written in    0.120 sec.

  321  0.00082    0.0   50.8  -495.73182  -495.73182  -495.72844  -495.72762  0.0000  0.0000  0.0000  0.0000
  322  0.00083    0.0   51.3  -495.73186  -495.73186  -495.72845  -495.72762  0.0000  0.0000  0.0000  0.0000
  323  0.00084    0.0   51.8  -495.73190  -495.73190  -495.72846  -495.72762  0.0000  0.0000  0.0000  0.0000
  324  0.00085    0.0   52.3  -495.73194  -495.73194  -495.72846  -495.72762  0.0000  0.0000  0.0000  0.0000
  325  0.00085    0.0   52.6  -495.73197  -495.73197  -495.72847  -495.72762  0.0000  0.0000  0.0000  0.0000
  326  0.00086    0.0   52.9  -495.73200  -495.73200  -495.72848  -495.72762  0.0000  0.0000  0.0000  0.0000
  327  0.00087    0.0   53.2  -495.73203  -495.73203  -495.72849  -495.72762  0.0000  0.0000  0.0000  0.0000
  328  0.00088    0.0   53.4  -495.73204  -495.73204  -495.72849  -495.72762  0.0000  0.0000  0.0000  0.0000
  329  0.00088    0.0   53.5  -495.73206  -495.73206  -495.72850  -495.72762  0.0000  0.0000  0.0000  0.0000
  330  0.00089    0.0   53.6  -495.73207  -495.73207  -495.72851  -495.72762  0.0000  0.0000  0.0000  0.0000
  331  0.00089    0.0   53.6  -495.73208  -495.73208  -495.72851  -495.72762  0.0000  0.0000  0.0000  0.0000
  332  0.00090    0.0   53.6  -495.73208  -495.73208  -495.72851  -495.72762  0.0000  0.0000  0.0000  0.0000
  333  0.00090    0.0   53.5  -495.73208  -495.73208  -495.72852  -495.72762  0.0000  0.0000  0.0000  0.0000
  334  0.00090    0.0   53.5  -495.73207  -495.73207  -495.72851  -495.72762  0.0000  0.0000  0.0000  0.0000
  335  0.00089    0.0   53.3  -495.73206  -495.73206  -495.72851  -495.72762  0.0000  0.0000  0.0000  0.0000
  336  0.00089    0.0   53.2  -495.73204  -495.73204  -495.72850  -495.72762  0.0000  0.0000  0.0000  0.0000
  337  0.00088    0.0   53.0  -495.73202  -495.73202  -495.72850  -495.72762  0.0000  0.0000  0.0000  0.0000
  338  0.00087    0.0   52.7  -495.73200  -495.73200  -495.72849  -495.72762  0.0000  0.0000  0.0000  0.0000
  339  0.00086    0.0   52.4  -495.73197  -495.73197  -495.72848  -495.72762  0.0000  0.0000  0.0000  0.0000
  340  0.00085    0.0   52.0  -495.73193  -495.73193  -495.72847  -495.72762  0.0000  0.0000  0.0000  0.0000

   writing restart file: .//cp_92.save
   restart file written in    0.121 sec.

  341  0.00085    0.0   51.6  -495.73189  -495.73189  -495.72846  -495.72761  0.0000  0.0000  0.0000  0.0000
  342  0.00084    0.0   51.0  -495.73185  -495.73185  -495.72846  -495.72761  0.0000  0.0000  0.0000  0.0000
  343  0.00084    0.0   50.4  -495.73180  -495.73180  -495.72844  -495.72761  0.0000  0.0000  0.0000  0.0000
  344  0.00083    0.0   49.8  -495.73175  -495.73175  -495.72844  -495.72761  0.0000  0.0000  0.0000  0.0000
  345  0.00082    0.0   49.1  -495.73169  -495.73169  -495.72843  -495.72761  0.0000  0.0000  0.0000  0.0000
  346  0.00081    0.0   48.4  -495.73164  -495.73164  -495.72842  -495.72761  0.0000  0.0000  0.0000  0.0000
  347  0.00080    0.0   47.7  -495.73158  -495.73158  -495.72841  -495.72761  0.0000  0.0000  0.0000  0.0000
  348  0.00078    0.0   46.9  -495.73151  -495.73151  -495.72839  -495.72761  0.0000  0.0000  0.0000  0.0000
  349  0.00076    0.0   46.1  -495.73144  -495.73144  -495.72837  -495.72761  0.0000  0.0000  0.0000  0.0000
  350  0.00075    0.0   45.4  -495.73138  -495.73138  -495.72837  -495.72762  0.0000  0.0000  0.0000  0.0000
  351  0.00073    0.0   44.5  -495.73131  -495.73131  -495.72835  -495.72762  0.0000  0.0000  0.0000  0.0000
  352  0.00071    0.0   43.6  -495.73123  -495.73123  -495.72833  -495.72762  0.0000  0.0000  0.0000  0.0000
  353  0.00069    0.0   42.7  -495.73115  -495.73115  -495.72831  -495.72762  0.0000  0.0000  0.0000  0.0000
  354  0.00067    0.0   41.8  -495.73107  -495.73107  -495.72829  -495.72762  0.0000  0.0000  0.0000  0.0000
  355  0.00065    0.0   40.8  -495.73098  -495.73098  -495.72827  -495.72762  0.0000  0.0000  0.0000  0.0000
  356  0.00064    0.0   39.7  -495.73090  -495.73090  -495.72826  -495.72762  0.0000  0.0000  0.0000  0.0000
  357  0.00062    0.0   38.7  -495.73083  -495.73083  -495.72825  -495.72764  0.0000  0.0000  0.0000  0.0000
  358  0.00060    0.0   37.6  -495.73074  -495.73074  -495.72824  -495.72764  0.0000  0.0000  0.0000  0.0000
  359  0.00058    0.0   36.5  -495.73064  -495.73064  -495.72822  -495.72764  0.0000  0.0000  0.0000  0.0000
  360  0.00057    0.0   35.3  -495.73055  -495.73055  -495.72820  -495.72764  0.0000  0.0000  0.0000  0.0000

   writing restart file: .//cp_92.save
   restart file written in    0.120 sec.

  361  0.00055    0.0   34.2  -495.73046  -495.73046  -495.72818  -495.72764  0.0000  0.0000  0.0000  0.0000
  362  0.00053    0.0   33.1  -495.73036  -495.73036  -495.72816  -495.72764  0.0000  0.0000  0.0000  0.0000
  363  0.00051    0.0   32.0  -495.73027  -495.73027  -495.72814  -495.72764  0.0000  0.0000  0.0000  0.0000
  364  0.00049    0.0   30.9  -495.73017  -495.73017  -495.72812  -495.72763  0.0000  0.0000  0.0000  0.0000
  365  0.00047    0.0   29.8  -495.73008  -495.73008  -495.72810  -495.72763  0.0000  0.0000  0.0000  0.0000
  366  0.00044    0.0   28.7  -495.72998  -495.72998  -495.72808  -495.72763  0.0000  0.0000  0.0000  0.0000
  367  0.00042    0.0   27.6  -495.72989  -495.72989  -495.72806  -495.72763  0.0000  0.0000  0.0000  0.0000
  368  0.00040    0.0   26.4  -495.72980  -495.72980  -495.72804  -495.72763  0.0000  0.0000  0.0000  0.0000
  369  0.00038    0.0   25.3  -495.72970  -495.72970  -495.72802  -495.72763  0.0000  0.0000  0.0000  0.0000
  370  0.00036    0.0   24.2  -495.72961  -495.72961  -495.72800  -495.72763  0.0000  0.0000  0.0000  0.0000
  371  0.00035    0.0   23.1  -495.72952  -495.72952  -495.72798  -495.72763  0.0000  0.0000  0.0000  0.0000
  372  0.00033    0.0   22.0  -495.72943  -495.72943  -495.72796  -495.72763  0.0000  0.0000  0.0000  0.0000
  373  0.00032    0.0   20.9  -495.72934  -495.72934  -495.72795  -495.72763  0.0000  0.0000  0.0000  0.0000
  374  0.00030    0.0   19.9  -495.72925  -495.72925  -495.72793  -495.72763  0.0000  0.0000  0.0000  0.0000
  375  0.00029    0.0   18.8  -495.72917  -495.72917  -495.72792  -495.72763  0.0000  0.0000  0.0000  0.0000
  376  0.00027    0.0   17.8  -495.72909  -495.72909  -495.72790  -495.72763  0.0000  0.0000  0.0000  0.0000
  377  0.00026    0.0   16.9  -495.72901  -495.72901  -495.72789  -495.72763  0.0000  0.0000  0.0000  0.0000
  378  0.00024    0.0   15.9  -495.72893  -495.72893  -495.72787  -495.72763  0.0000  0.0000  0.0000  0.0000
  379  0.00022    0.0   15.1  -495.72886  -495.72886  -495.72786  -495.72763  0.0000  0.0000  0.0000  0.0000
  380  0.00021    0.0   14.2  -495.72879  -495.72879  -495.72784  -495.72763  0.0000  0.0000  0.0000  0.0000

   writing restart file: .//cp_92.save
   restart file written in    0.121 sec.

  381  0.00019    0.0   13.4  -495.72872  -495.72872  -495.72783  -495.72763  0.0000  0.0000  0.0000  0.0000
  382  0.00018    0.0   12.7  -495.72865  -495.72865  -495.72781  -495.72763  0.0000  0.0000  0.0000  0.0000
  383  0.00017    0.0   11.9  -495.72859  -495.72859  -495.72780  -495.72763  0.0000  0.0000  0.0000  0.0000
  384  0.00016    0.0   11.2  -495.72853  -495.72853  -495.72779  -495.72763  0.0000  0.0000  0.0000  0.0000
  385  0.00015    0.0   10.5  -495.72848  -495.72848  -495.72778  -495.72763  0.0000  0.0000  0.0000  0.0000
  386  0.00014    0.0    9.9  -495.72843  -495.72843  -495.72777  -495.72763  0.0000  0.0000  0.0000  0.0000
  387  0.00013    0.0    9.3  -495.72838  -495.72838  -495.72777  -495.72763  0.0000  0.0000  0.0000  0.0000
  388  0.00013    0.0    8.7  -495.72834  -495.72834  -495.72776  -495.72763  0.0000  0.0000  0.0000  0.0000
  389  0.00012    0.0    8.3  -495.72830  -495.72830  -495.72775  -495.72763  0.0000  0.0000  0.0000  0.0000
  390  0.00012    0.0    7.8  -495.72827  -495.72827  -495.72775  -495.72763  0.0000  0.0000  0.0000  0.0000
  391  0.00011    0.0    7.5  -495.72824  -495.72824  -495.72774  -495.72763  0.0000  0.0000  0.0000  0.0000
  392  0.00010    0.0    7.2  -495.72821  -495.72821  -495.72774  -495.72763  0.0000  0.0000  0.0000  0.0000
  393  0.00010    0.0    7.0  -495.72819  -495.72819  -495.72773  -495.72763  0.0000  0.0000  0.0000  0.0000
  394  0.00010    0.0    6.8  -495.72818  -495.72818  -495.72773  -495.72763  0.0000  0.0000  0.0000  0.0000
  395  0.00009    0.0    6.6  -495.72817  -495.72817  -495.72773  -495.72763  0.0000  0.0000  0.0000  0.0000
  396  0.00009    0.0    6.5  -495.72816  -495.72816  -495.72773  -495.72763  0.0000  0.0000  0.0000  0.0000
  397  0.00009    0.0    6.5  -495.72816  -495.72816  -495.72773  -495.72763  0.0000  0.0000  0.0000  0.0000
  398  0.00010    0.0    6.5  -495.72816  -495.72816  -495.72773  -495.72763  0.0000  0.0000  0.0000  0.0000
  399  0.00010    0.0    6.6  -495.72817  -495.72817  -495.72773  -495.72763  0.0000  0.0000  0.0000  0.0000

 * Physical Quantities at step:   400

   from rhoofr: total integrated electronic density
   spin up
   in g-space =   60.000000   in r-space =  60.000000
   spin down
   in g-space =   50.000000   in r-space =  50.000000


                total energy =     -495.72818 Hartree a.u.
              kinetic energy =      107.23494 Hartree a.u.
        electrostatic energy =     -672.85652 Hartree a.u.
                         esr =        0.00000 Hartree a.u.
                       eself =      869.69417 Hartree a.u.
      pseudopotential energy =       86.45591 Hartree a.u.
  n-l pseudopotential energy =       61.73683 Hartree a.u.
 exchange-correlation energy =      -78.29933 Hartree a.u.
           average potential =        0.00000 Hartree a.u.



   Eigenvalues (eV), kp =   1 , spin =  1

  -66.86  -66.84  -66.77  -66.67  -38.68  -38.47  -38.32  -38.26  -38.25  -38.19
  -38.16  -38.14  -38.13  -38.07  -38.05  -38.01  -37.96  -37.92  -13.34  -12.09
  -11.92  -11.90  -11.63  -11.55  -11.50  -11.22   -0.74   -0.61   -0.49   -0.09
    0.55    0.58    1.00    1.31    1.35    1.46    1.51    1.57    1.93    2.05
    2.55    3.01    3.04    3.14    3.54    3.58    3.67    4.31    4.38    4.40
    5.17    5.19    5.56    5.65    5.76    5.88    5.92    5.96    6.18    6.21

   Eigenvalues (eV), kp =   1 , spin =  2

  -64.13  -64.11  -63.93  -63.77  -38.68  -38.47  -35.81  -35.65  -35.63  -35.53
  -35.49  -35.39  -35.33  -35.25  -35.25  -35.16  -35.12  -35.03  -13.33  -12.11
  -11.96  -11.94  -11.67  -11.59  -11.55  -11.28   -0.27   -0.15   -0.00    0.34
    1.04    1.07    1.16    1.49    1.61    1.84    1.96    2.01    2.35    2.42
    2.90    3.05    3.06    3.23    3.51    3.59    3.68    4.26    4.33    4.36

   Allocated memory (kb) =     49420

   CELL_PARAMETERS
   11.12379848    5.56190117    2.78150882
    0.00000000    9.63349246    1.60590576
    0.00000000    0.00000000    9.05243067

   System Density [g/cm^3] :     4.0416


   Center of mass square displacement (a.u.):   0.000000

   ATOMIC_POSITIONS
   Li   0.111359E+02  0.640379E+01  0.900227E+01
   Li   0.166952E+02  0.644983E+01  0.904157E+01
   Cr   0.167088E+02  0.970270E+01  0.134302E+02
   Cr   0.194498E+02  0.143742E+02  0.137258E+02
   Cr   0.222526E+02  0.966384E+01  0.134538E+02
   Cr   0.250427E+02  0.144046E+02  0.137112E+02
   O    0.138913E+02  0.789412E+01  0.117112E+02
   O    0.167208E+02  0.129669E+02  0.118539E+02
   O    0.195107E+02  0.794342E+01  0.116890E+02
   O    0.222065E+02  0.129139E+02  0.119122E+02
   O    0.195134E+02  0.111380E+02  0.151476E+02
   O    0.222101E+02  0.161595E+02  0.153999E+02
   O    0.250313E+02  0.111015E+02  0.152331E+02
   O    0.278481E+02  0.161700E+02  0.153797E+02

   ATOMIC_VELOCITIES
   Li   0.255126E-04  0.117488E-05 -0.391900E-06
   Li  -0.276317E-04  0.123565E-04  0.278120E-04
   Cr  -0.206589E-04 -0.209902E-04 -0.131646E-04
   Cr  -0.510526E-05  0.582814E-05 -0.255431E-04
   Cr  -0.264256E-04  0.313640E-04 -0.135582E-04
   Cr   0.489679E-04 -0.212044E-04 -0.553365E-05
   O   -0.248388E-04  0.865783E-05  0.227766E-04
   O   -0.228568E-05  0.103883E-04  0.278363E-04
   O   -0.124160E-04  0.118487E-05  0.312653E-05
   O   -0.111436E-04  0.184130E-04  0.416584E-04
   O    0.573957E-05  0.189967E-05  0.187264E-04
   O    0.104982E-04 -0.134677E-05  0.328588E-04
   O    0.990811E-05 -0.205279E-04  0.118834E-04
   O    0.359283E-04 -0.828206E-05  0.170793E-04



   Partial temperatures (for each ionic specie) 
   Species  Temp (K)   Mean Square Displacement (a.u.)
        1       1.56     0.0045
        2      16.20     0.0071
        3       3.21     0.0153

  nfi    ekinc  temph  tempp        etot      enthal       econs       econt    vnhh   xnhh0    vnhp   xnhp0
  400  0.00010    0.0    6.7  -495.72818  -495.72818  -495.72773  -495.72763  0.0000  0.0000  0.0000  0.0000

   writing restart file: .//cp_92.save
   restart file written in    0.120 sec.

  401  0.00010    0.0    6.9  -495.72819  -495.72819  -495.72774  -495.72763  0.0000  0.0000  0.0000  0.0000
  402  0.00011    0.0    7.1  -495.72821  -495.72821  -495.72774  -495.72763  0.0000  0.0000  0.0000  0.0000
  403  0.00011    0.0    7.4  -495.72824  -495.72824  -495.72774  -495.72763  0.0000  0.0000  0.0000  0.0000
  404  0.00012    0.0    7.8  -495.72827  -495.72827  -495.72775  -495.72763  0.0000  0.0000  0.0000  0.0000
  405  0.00012    0.0    8.2  -495.72830  -495.72830  -495.72776  -495.72763  0.0000  0.0000  0.0000  0.0000
  406  0.00013    0.0    8.7  -495.72834  -495.72834  -495.72776  -495.72763  0.0000  0.0000  0.0000  0.0000
  407  0.00014    0.0    9.2  -495.72838  -495.72838  -495.72777  -495.72763  0.0000  0.0000  0.0000  0.0000
  408  0.00015    0.0    9.7  -495.72843  -495.72843  -495.72778  -495.72763  0.0000  0.0000  0.0000  0.0000
  409  0.00016    0.0   10.3  -495.72848  -495.72848  -495.72779  -495.72763  0.0000  0.0000  0.0000  0.0000
  410  0.00017    0.0   11.0  -495.72853  -495.72853  -495.72780  -495.72763  0.0000  0.0000  0.0000  0.0000
  411  0.00018    0.0   11.7  -495.72859  -495.72859  -495.72781  -495.72763  0.0000  0.0000  0.0000  0.0000
  412  0.00019    0.0   12.4  -495.72865  -495.72865  -495.72783  -495.72763  0.0000  0.0000  0.0000  0.0000
  413  0.00021    0.0   13.2  -495.72872  -495.72872  -495.72784  -495.72763  0.0000  0.0000  0.0000  0.0000
  414  0.00022    0.0   14.1  -495.72879  -495.72879  -495.72785  -495.72763  0.0000  0.0000  0.0000  0.0000
  415  0.00023    0.0   15.0  -495.72886  -495.72886  -495.72787  -495.72763  0.0000  0.0000  0.0000  0.0000
  416  0.00025    0.0   15.9  -495.72893  -495.72893  -495.72788  -495.72763  0.0000  0.0000  0.0000  0.0000
  417  0.00026    0.0   16.8  -495.72901  -495.72901  -495.72789  -495.72763  0.0000  0.0000  0.0000  0.0000
  418  0.00027    0.0   17.8  -495.72909  -495.72909  -495.72791  -495.72763  0.0000  0.0000  0.0000  0.0000
  419  0.00029    0.0   18.9  -495.72916  -495.72916  -495.72791  -495.72762  0.0000  0.0000  0.0000  0.0000
  420  0.00031    0.0   19.9  -495.72925  -495.72925  -495.72793  -495.72762  0.0000  0.0000  0.0000  0.0000

   writing restart file: .//cp_92.save
   restart file written in    0.121 sec.

  421  0.00032    0.0   20.9  -495.72934  -495.72934  -495.72794  -495.72762  0.0000  0.0000  0.0000  0.0000
  422  0.00034    0.0   22.0  -495.72942  -495.72942  -495.72796  -495.72762  0.0000  0.0000  0.0000  0.0000
  423  0.00036    0.0   23.1  -495.72952  -495.72952  -495.72798  -495.72762  0.0000  0.0000  0.0000  0.0000
  424  0.00038    0.0   24.2  -495.72961  -495.72961  -495.72800  -495.72762  0.0000  0.0000  0.0000  0.0000
  425  0.00040    0.0   25.3  -495.72970  -495.72970  -495.72802  -495.72762  0.0000  0.0000  0.0000  0.0000
  426  0.00041    0.0   26.5  -495.72980  -495.72980  -495.72804  -495.72762  0.0000  0.0000  0.0000  0.0000
  427  0.00043    0.0   27.6  -495.72989  -495.72989  -495.72805  -495.72762  0.0000  0.0000  0.0000  0.0000
  428  0.00045    0.0   28.8  -495.72999  -495.72999  -495.72807  -495.72762  0.0000  0.0000  0.0000  0.0000
  429  0.00047    0.0   30.0  -495.73008  -495.73008  -495.72809  -495.72762  0.0000  0.0000  0.0000  0.0000
  430  0.00048    0.0   31.2  -495.73018  -495.73018  -495.72810  -495.72762  0.0000  0.0000  0.0000  0.0000
  431  0.00050    0.0   32.4  -495.73027  -495.73027  -495.72812  -495.72762  0.0000  0.0000  0.0000  0.0000
  432  0.00052    0.0   33.5  -495.73037  -495.73037  -495.72814  -495.72762  0.0000  0.0000  0.0000  0.0000
  433  0.00054    0.0   34.7  -495.73045  -495.73045  -495.72815  -495.72761  0.0000  0.0000  0.0000  0.0000
  434  0.00056    0.0   35.8  -495.73055  -495.73055  -495.72817  -495.72761  0.0000  0.0000  0.0000  0.0000
  435  0.00058    0.0   37.0  -495.73064  -495.73064  -495.72819  -495.72761  0.0000  0.0000  0.0000  0.0000
  436  0.00060    0.0   38.1  -495.73074  -495.73074  -495.72821  -495.72761  0.0000  0.0000  0.0000  0.0000
  437  0.00061    0.0   39.1  -495.73083  -495.73083  -495.72822  -495.72761  0.0000  0.0000  0.0000  0.0000
  438  0.00063    0.0   40.2  -495.73092  -495.73092  -495.72824  -495.72761  0.0000  0.0000  0.0000  0.0000
  439  0.00065    0.0   41.3  -495.73100  -495.73100  -495.72826  -495.72761  0.0000  0.0000  0.0000  0.0000
  440  0.00066    0.0   42.4  -495.73109  -495.73109  -495.72827  -495.72761  0.0000  0.0000  0.0000  0.0000

   writing restart file: .//cp_92.save
   restart file written in    0.118 sec.

  441  0.00068    0.0   43.4  -495.73117  -495.73117  -495.72829  -495.72761  0.0000  0.0000  0.0000  0.0000
  442  0.00069    0.0   44.4  -495.73126  -495.73126  -495.72830  -495.72761  0.0000  0.0000  0.0000  0.0000
  443  0.00071    0.0   45.4  -495.73133  -495.73133  -495.72832  -495.72761  0.0000  0.0000  0.0000  0.0000
  444  0.00072    0.0   46.3  -495.73141  -495.73141  -495.72833  -495.72761  0.0000  0.0000  0.0000  0.0000
  445  0.00074    0.0   47.2  -495.73148  -495.73148  -495.72835  -495.72761  0.0000  0.0000  0.0000  0.0000
  446  0.00075    0.0   48.0  -495.73155  -495.73155  -495.72836  -495.72761  0.0000  0.0000  0.0000  0.0000
  447  0.00076    0.0   48.8  -495.73162  -495.73162  -495.72837  -495.72761  0.0000  0.0000  0.0000  0.0000
  448  0.00078    0.0   49.6  -495.73169  -495.73169  -495.72839  -495.72761  0.0000  0.0000  0.0000  0.0000
  449  0.00079    0.0   50.3  -495.73175  -495.73175  -495.72840  -495.72761  0.0000  0.0000  0.0000  0.0000
  450  0.00080    0.0   51.0  -495.73180  -495.73180  -495.72841  -495.72761  0.0000  0.0000  0.0000  0.0000
  451  0.00081    0.0   51.7  -495.73186  -495.73186  -495.72842  -495.72761  0.0000  0.0000  0.0000  0.0000
  452  0.00082    0.0   52.3  -495.73191  -495.73191  -495.72843  -495.72761  0.0000  0.0000  0.0000  0.0000
  453  0.00083    0.0   52.8  -495.73196  -495.73196  -495.72845  -495.72762  0.0000  0.0000  0.0000  0.0000
  454  0.00084    0.0   53.3  -495.73200  -495.73200  -495.72845  -495.72762  0.0000  0.0000  0.0000  0.0000
  455  0.00085    0.0   53.8  -495.73204  -495.73204  -495.72846  -495.72762  0.0000  0.0000  0.0000  0.0000
  456  0.00085    0.0   54.2  -495.73207  -495.73207  -495.72847  -495.72762  0.0000  0.0000  0.0000  0.0000
  457  0.00086    0.0   54.5  -495.73210  -495.73210  -495.72848  -495.72762  0.0000  0.0000  0.0000  0.0000
  458  0.00086    0.0   54.8  -495.73213  -495.73213  -495.72848  -495.72762  0.0000  0.0000  0.0000  0.0000
  459  0.00087    0.0   55.1  -495.73215  -495.73215  -495.72849  -495.72762  0.0000  0.0000  0.0000  0.0000
  460  0.00087    0.0   55.3  -495.73217  -495.73217  -495.72849  -495.72762  0.0000  0.0000  0.0000  0.0000

   writing restart file: .//cp_92.save
   restart file written in    0.120 sec.

  461  0.00088    0.0   55.4  -495.73218  -495.73218  -495.72849  -495.72762  0.0000  0.0000  0.0000  0.0000
  462  0.00088    0.0   55.5  -495.73219  -495.73219  -495.72850  -495.72762  0.0000  0.0000  0.0000  0.0000
  463  0.00088    0.0   55.6  -495.73219  -495.73219  -495.72850  -495.72762  0.0000  0.0000  0.0000  0.0000
  464  0.00088    0.0   55.5  -495.73219  -495.73219  -495.72850  -495.72762  0.0000  0.0000  0.0000  0.0000
  465  0.00088    0.0   55.5  -495.73219  -495.73219  -495.72850  -495.72762  0.0000  0.0000  0.0000  0.0000
  466  0.00088    0.0   55.3  -495.73218  -495.73218  -495.72850  -495.72762  0.0000  0.0000  0.0000  0.0000
  467  0.00088    0.0   55.2  -495.73216  -495.73216  -495.72850  -495.72762  0.0000  0.0000  0.0000  0.0000
  468  0.00088    0.0   54.9  -495.73215  -495.73215  -495.72849  -495.72762  0.0000  0.0000  0.0000  0.0000
  469  0.00087    0.0   54.6  -495.73213  -495.73213  -495.72849  -495.72762  0.0000  0.0000  0.0000  0.0000
  470  0.00087    0.0   54.3  -495.73210  -495.73210  -495.72849  -495.72762  0.0000  0.0000  0.0000  0.0000
  471  0.00087    0.0   53.9  -495.73207  -495.73207  -495.72848  -495.72762  0.0000  0.0000  0.0000  0.0000
  472  0.00086    0.0   53.5  -495.73204  -495.73204  -495.72848  -495.72762  0.0000  0.0000  0.0000  0.0000
  473  0.00085    0.0   53.1  -495.73200  -495.73200  -495.72847  -495.72762  0.0000  0.0000  0.0000  0.0000
  474  0.00085    0.0   52.6  -495.73196  -495.73196  -495.72846  -495.72762  0.0000  0.0000  0.0000  0.0000
  475  0.00084    0.0   52.0  -495.73191  -495.73191  -495.72845  -495.72762  0.0000  0.0000  0.0000  0.0000
  476  0.00083    0.0   51.5  -495.73187  -495.73187  -495.72844  -495.72762  0.0000  0.0000  0.0000  0.0000
  477  0.00081    0.0   50.8  -495.73181  -495.73181  -495.72843  -495.72762  0.0000  0.0000  0.0000  0.0000
  478  0.00080    0.0   50.2  -495.73176  -495.73176  -495.72842  -495.72762  0.0000  0.0000  0.0000  0.0000
  479  0.00079    0.0   49.5  -495.73170  -495.73170  -495.72841  -495.72762  0.0000  0.0000  0.0000  0.0000
  480  0.00078    0.0   48.7  -495.73164  -495.73164  -495.72840  -495.72762  0.0000  0.0000  0.0000  0.0000

   writing restart file: .//cp_92.save
   restart file written in    0.120 sec.

  481  0.00077    0.0   47.9  -495.73157  -495.73157  -495.72839  -495.72762  0.0000  0.0000  0.0000  0.0000
  482  0.00076    0.0   47.0  -495.73151  -495.73151  -495.72838  -495.72762  0.0000  0.0000  0.0000  0.0000
  483  0.00074    0.0   46.2  -495.73143  -495.73143  -495.72836  -495.72762  0.0000  0.0000  0.0000  0.0000
  484  0.00073    0.0   45.3  -495.73136  -495.73136  -495.72835  -495.72762  0.0000  0.0000  0.0000  0.0000
  485  0.00071    0.0   44.3  -495.73128  -495.73128  -495.72834  -495.72762  0.0000  0.0000  0.0000  0.0000
  486  0.00070    0.0   43.4  -495.73121  -495.73121  -495.72832  -495.72762  0.0000  0.0000  0.0000  0.0000
  487  0.00068    0.0   42.5  -495.73112  -495.73112  -495.72830  -495.72762  0.0000  0.0000  0.0000  0.0000
  488  0.00066    0.0   41.5  -495.73104  -495.73104  -495.72828  -495.72762  0.0000  0.0000  0.0000  0.0000
  489  0.00064    0.0   40.5  -495.73096  -495.73096  -495.72826  -495.72762  0.0000  0.0000  0.0000  0.0000
  490  0.00062    0.0   39.5  -495.73087  -495.73087  -495.72824  -495.72762  0.0000  0.0000  0.0000  0.0000
  491  0.00060    0.0   38.5  -495.73079  -495.73079  -495.72822  -495.72762  0.0000  0.0000  0.0000  0.0000
  492  0.00058    0.0   37.5  -495.73070  -495.73070  -495.72820  -495.72762  0.0000  0.0000  0.0000  0.0000
  493  0.00057    0.0   36.4  -495.73061  -495.73061  -495.72819  -495.72762  0.0000  0.0000  0.0000  0.0000
  494  0.00055    0.0   35.3  -495.73052  -495.73052  -495.72817  -495.72762  0.0000  0.0000  0.0000  0.0000
  495  0.00053    0.0   34.3  -495.73043  -495.73043  -495.72815  -495.72762  0.0000  0.0000  0.0000  0.0000
  496  0.00051    0.0   33.2  -495.73034  -495.73034  -495.72813  -495.72762  0.0000  0.0000  0.0000  0.0000
  497  0.00049    0.0   32.1  -495.73025  -495.73025  -495.72812  -495.72762  0.0000  0.0000  0.0000  0.0000
  498  0.00048    0.0   31.0  -495.73016  -495.73016  -495.72810  -495.72762  0.0000  0.0000  0.0000  0.0000
  499  0.00046    0.0   29.9  -495.73007  -495.73007  -495.72808  -495.72762  0.0000  0.0000  0.0000  0.0000

 * Physical Quantities at step:   500


                total energy =     -495.72998 Hartree a.u.
              kinetic energy =      106.96053 Hartree a.u.
        electrostatic energy =     -672.63939 Hartree a.u.
                         esr =        0.00000 Hartree a.u.
                       eself =      869.69417 Hartree a.u.
      pseudopotential energy =       86.44626 Hartree a.u.
  n-l pseudopotential energy =       61.70272 Hartree a.u.
 exchange-correlation energy =      -78.20010 Hartree a.u.
           average potential =        0.00000 Hartree a.u.



   Eigenvalues (eV), kp =   1 , spin =  1

  -66.95  -66.94  -66.88  -66.85  -38.49  -38.39  -38.36  -38.34  -38.33  -38.29
  -38.27  -38.26  -38.25  -38.21  -38.15  -38.11  -38.09  -38.05  -13.17  -11.93
  -11.86  -11.85  -11.57  -11.52  -11.48  -11.30   -0.61   -0.49   -0.34   -0.09
    0.83    0.87    1.00    1.38    1.43    1.48    1.57    1.58    1.83    1.97
    2.52    3.12    3.15    3.27    3.42    3.50    3.59    4.34    4.39    4.41
    5.06    5.09    5.40    5.48    5.59    5.79    5.84    5.85    6.09    6.11

   Eigenvalues (eV), kp =   1 , spin =  2

  -64.20  -64.19  -64.02  -63.99  -38.49  -38.34  -35.81  -35.73  -35.68  -35.60
  -35.54  -35.52  -35.50  -35.42  -35.33  -35.33  -35.21  -35.17  -13.17  -11.96
  -11.92  -11.89  -11.62  -11.58  -11.54  -11.37   -0.14   -0.04    0.14    0.34
    1.10    1.36    1.40    1.53    1.59    1.90    2.04    2.07    2.25    2.35
    2.93    3.14    3.15    3.31    3.40    3.48    3.58    4.28    4.33    4.36

   Allocated memory (kb) =     49420

   CELL_PARAMETERS
   11.12379848    5.56190117    2.78150882
    0.00000000    9.63349246    1.60590576
    0.00000000    0.00000000    9.05243067

   System Density [g/cm^3] :     4.0416


   Center of mass square displacement (a.u.):   0.000000

   ATOMIC_POSITIONS
   Li   0.111720E+02  0.642121E+01  0.903785E+01
   Li   0.166536E+02  0.644034E+01  0.907150E+01
   Cr   0.166646E+02  0.963164E+01  0.133995E+02
   Cr   0.194766E+02  0.144382E+02  0.136820E+02
   Cr   0.222515E+02  0.966683E+01  0.134106E+02
   Cr   0.250665E+02  0.144058E+02  0.137042E+02
   O    0.138767E+02  0.788840E+01  0.116863E+02
   O    0.167239E+02  0.129924E+02  0.117987E+02
   O    0.194879E+02  0.791701E+01  0.116374E+02
   O    0.222110E+02  0.129545E+02  0.118801E+02
   O    0.194963E+02  0.111265E+02  0.153306E+02
   O    0.222406E+02  0.161649E+02  0.155155E+02
   O    0.250203E+02  0.110641E+02  0.153580E+02
   O    0.278608E+02  0.161854E+02  0.154967E+02

   ATOMIC_VELOCITIES
   Li   0.126862E-04  0.187745E-04  0.324561E-04
   Li  -0.231659E-04 -0.189032E-04 -0.230810E-04
   Cr  -0.328637E-04 -0.797476E-04 -0.156662E-04
   Cr   0.417577E-04  0.737129E-04 -0.210050E-04
   Cr  -0.626080E-05 -0.119130E-04 -0.289151E-04
   Cr   0.486375E-05  0.165102E-04  0.132772E-04
   O   -0.826780E-05 -0.162447E-04 -0.659041E-04
   O    0.721409E-06  0.245482E-04 -0.728533E-04
   O   -0.166634E-04 -0.430688E-04 -0.557694E-04
   O    0.280280E-04  0.377768E-04 -0.690113E-04
   O   -0.203000E-04 -0.953750E-05  0.148355E-03
   O    0.395795E-04  0.120014E-05  0.940557E-04
   O   -0.275768E-04 -0.228323E-04  0.942756E-04
   O   -0.153387E-04  0.328855E-04  0.927834E-04



   Partial temperatures (for each ionic specie) 
   Species  Temp (K)   Mean Square Displacement (a.u.)
        1       1.99     0.0018
        2      41.89     0.0017
        3      29.10     0.0011
  500  0.00044    0.0   28.9  -495.72998  -495.72998  -495.72806  -495.72762  0.0000  0.0000  0.0000  0.0000

   writing restart file: .//cp_92.save
   restart file written in    0.163 sec.



   Averaged Physical Quantities
                      accomulated      this run
   ekinc         :        0.00051       0.00051 (AU)
   ekin          :      107.07935     107.07935 (AU)
   epot          :     -664.52758    -664.52758 (AU)
   total energy  :     -495.73023    -495.73023 (AU)
   temperature   :       31.56074      31.56074 (K )
   enthalpy      :     -495.73023    -495.73023 (AU)
   econs         :     -495.72813    -495.72813 (AU)
   pressure      :        0.00000       0.00000 (Gpa)
   volume        :      970.06778     970.06778 (AU)


     initialize   :     11.18s CPU     11.23s WALL (       1 calls)
     main_loop    :    548.34s CPU    575.87s WALL (     500 calls)

     Called by main_loop:
     move_electro :    495.25s CPU    516.77s WALL (     500 calls)
     ortho        :     48.88s CPU     54.36s WALL (     500 calls)
     updatc       :      2.75s CPU      3.19s WALL (     500 calls)
     strucf       :      0.08s CPU      0.11s WALL (     501 calls)
     calbec       :      0.02s CPU      0.03s WALL (     501 calls)

     Called by move_electrons:
     rhoofr       :     31.40s CPU     31.63s WALL (     500 calls)
     vofrho       :     48.68s CPU     50.59s WALL (     500 calls)
     dforce       :    104.52s CPU    121.75s WALL (   27500 calls)
     calphi       :      2.58s CPU      2.05s WALL (     500 calls)
     newd         :    275.58s CPU    276.62s WALL (     500 calls)
     nlfl         :      2.68s CPU      3.98s WALL (     500 calls)

     Called by ortho:
     ortho_iter   :     12.72s CPU     14.38s WALL (    1000 calls)
     rsg          :      1.13s CPU      1.20s WALL (    1000 calls)
     rhoset       :      2.85s CPU      3.44s WALL (    1000 calls)
     sigset       :      2.16s CPU      2.28s WALL (    1000 calls)
     tauset       :      2.36s CPU      3.13s WALL (    1000 calls)

     Small boxes:
     rhov         :     17.87s CPU     17.97s WALL (     500 calls)
     fftb         :     44.78s CPU     44.87s WALL (  247501 calls)
     set_cc       :      0.58s CPU      0.56s WALL (     500 calls)
     forcecc      :      1.50s CPU      1.53s WALL (     500 calls)

     Low-level routines:
     prefor       :      0.30s CPU      0.29s WALL (    1001 calls)
     nlfq         :     28.60s CPU     29.06s WALL (     500 calls)
     nlsm1        :     27.20s CPU     29.49s WALL (    1501 calls)
     nlsm2        :     27.53s CPU     27.92s WALL (     500 calls)
     fft          :     20.52s CPU     22.45s WALL (    7500 calls)
     ffts         :      0.66s CPU      0.66s WALL (    1000 calls)
     fftw         :     91.43s CPU     93.74s WALL (   82500 calls)
     fft_scatter  :     82.58s CPU     86.26s WALL (   91000 calls)
     betagx       :      6.20s CPU      6.21s WALL (       1 calls)
     qradx        :      3.19s CPU      3.20s WALL (       1 calls)
     ortho_iter   :     12.72s CPU     14.38s WALL (    1000 calls)


     CP           :  9m22.27s CPU     9m50.36s WALL


   This run was terminated on:  18:52:17  17Oct2013            

=------------------------------------------------------------------------------=
   JOB DONE.
=------------------------------------------------------------------------------=
