  MPI-parallelism will be employed.
------------------------------------------------------------
          Invoking FHI-aims ...
          Version 081912
          Compiled on 2013/05/20 at 10:40:32 on host head.cluster.

          When using FHI-aims, please cite the following reference:

          Volker Blum, Ralf Gehrke, Felix Hanke, Paula Havu,
          Ville Havu, Xinguo Ren, Karsten Reuter, and Matthias Scheffler,
          'Ab Initio Molecular Simulations with Numeric Atom-Centered Orbitals: FHI-aims',
          Computer Physics Communications 180, 2175-2196 (2009)

------------------------------------------------------------

  Date     :  20130529, Time     :  102623.145
  Time zero on CPU 1             :   0.169960000000000E-01  s.
  Internal wall clock time zero  :           139055183.145  s.

  Using       16 parallel tasks.
  Task        0 on host node18.cluster reporting.
  Task        1 on host node18.cluster reporting.
  Task        2 on host node18.cluster reporting.
  Task        3 on host node18.cluster reporting.
  Task        4 on host node18.cluster reporting.
  Task        5 on host node18.cluster reporting.
  Task        6 on host node18.cluster reporting.
  Task        7 on host node18.cluster reporting.
  Task        8 on host node18.cluster reporting.
  Task        9 on host node18.cluster reporting.
  Task       10 on host node18.cluster reporting.
  Task       11 on host node18.cluster reporting.
  Task       12 on host node18.cluster reporting.
  Task       13 on host node18.cluster reporting.
  Task       14 on host node18.cluster reporting.
  Task       15 on host node18.cluster reporting.

  Performing system and environment tests:
  | Environment variable OMP_NUM_THREADS correctly set to 1.
  | Checking for scalapack...
  | No scalapack compiled in.

  Obtaining array dimensions for all initial allocations:
  
  -----------------------------------------------------------------------
  Parsing control.in (first pass over file, find array dimensions only).
  The contents of control.in will be repeated verbatim below
  unless switched off by setting 'verbatim_writeout .false.' .
  in the first line of control.in .
  -----------------------------------------------------------------------
  
  #########################################################################################
  #
  #  Volker Blum, FHI 2010 : Input file for FHI-aims
  #
  #  Input file control.in : All computational details for ZnO wurtzite
  #
  #########################################################################################
    #
    #  Physical model settings
    #
      xc               pbe
      charge           0.
      spin             none
      relativistic     atomic_zora scalar
    #
    #  SCF convergence settings
    #
      occupation_type  gaussian 0.1
      mixer            pulay
      n_max_pulay             10
      charge_mix_param        0.1
        # ini_linear_mixing     10
        # ini_linear_mix_param  0.05
        # preconditioner kerker 1.5
        # precondition_max_l    0
        # preconditioner turnoff charge 1e-4
        # preconditioner turnoff sum_ev 1e-1
      sc_accuracy_rho  1E-5
      sc_accuracy_eev  1E-3
      sc_accuracy_etot 1E-6
      sc_iter_limit    3000
    #
      KS_method          scalapack_fast
    #
    #  For periodic boundary conditions
    #
      k_grid 12 12 1
    #
    #  For relaxation:
    #
      relax_geometry bfgs 5.e-3
    # relax_unit_cell full
      sc_accuracy_forces  5E-4
    #
    # restart aims.restart
    #  Output options (examples):
    #
    #  Density of states. The DOS is here evaluated
    #  with an effective 144x144x144 k-point grid.
    #  (12 for each k-space direction in s.c.f., and then denser
    #  by another factor of 12 during post-processing). Check whether the
    #  the DOS is smooth, however - fcc Al may need significantly
    #  more k-points (van Hove singularities in DOS).
    #
    #  The dense dos_kgrid_factors below will take a noticeable amount
    #  of time, but they do lead to a smooth DOS.
    #
    #  output dos -20 10 1000 0.05
    #  dos_kgrid_factors  12 12 1
    #
    #  angular momentum channel resolved density of states
    #
    #  output atom_proj_dos -20 10 1000 0.05
    #
    #  High-symmetry k-points for fcc band structure output, if requested.
    #
    #  output band  0.25  0.50  0.75  0.5   0.5   0.5   40	W      L
    #  output band  0.5   0.5   0.5   0.25  0.25  0.25  40	L      Lambda
    #  output band  0.25  0.25  0.25  0     0     0     40	Lambda Gamma
    #  output band  0     0       0   0.00  0.25  0.25  40	Gamma  Delta
    #  output band  0.00  0.25  0.25  0     0.5   0.5   40	Delta  X
    #  output band  0     0.5   0.5   0.125 0.5   0.625 40	X      Z
    #  output band  0.125 0.5   0.625 0.25  0.50  0.75  40	Z      W
    #  output band  0.25  0.50  0.75  0.375 0.375 0.75  40	W      K
  
  ################################################################################
  #
  #  FHI-aims code project
  # Volker Blum, Fritz Haber Institute Berlin, 2009
  #
  #  Suggested "tight" defaults for H atom (to be pasted into control.in file)
  #
  ################################################################################
    species        H
  #     global species definitions
      nucleus             1
      mass                1.00794
  #
      l_hartree           6
  #
      cut_pot             4.0  2.0  1.0
      basis_dep_cutoff    1e-4
  #
      radial_base         24 7.0
      radial_multiplier   2
      angular_grids       specified
        division   0.1930   50
        division   0.3175  110
        division   0.4293  194
        division   0.5066  302
        division   0.5626  434
  #      division   0.5922  590
  #      division   0.6227  974
  #      division   0.6868 1202
  #      outer_grid  770
        outer_grid  434
  ################################################################################
  #
  #  Definition of "minimal" basis
  #
  ################################################################################
  #     valence basis states
      valence      1  s   1.
  #     ion occupancy
      ion_occ      1  s   0.5
  ################################################################################
  #
  #  Suggested additional basis functions. For production calculations,
  #  uncomment them one after another (the most important basis functions are
  #  listed first).
  #
  #  Basis constructed for dimers: 0.5 A, 0.7 A, 1.0 A, 1.5 A, 2.5 A
  #
  ################################################################################
  #  "First tier" - improvements: -1014.90 meV to -62.69 meV
       hydro 2 s 2.1
       hydro 2 p 3.5
  #  "Second tier" - improvements: -12.89 meV to -1.83 meV
       hydro 1 s 0.85
       hydro 2 p 3.7
       hydro 2 s 1.2
       hydro 3 d 7
  #  "Third tier" - improvements: -0.25 meV to -0.12 meV
  #     hydro 4 f 11.2
  #     hydro 3 p 4.8
  #     hydro 4 d 9
  #     hydro 3 s 3.2
  ################################################################################
  #
  #  FHI-aims code project
  # Volker Blum, Fritz Haber Institute Berlin, 2009
  #
  #  Suggested "tight" defaults for C atom (to be pasted into control.in file)
  #
  ################################################################################
    species        C
  #     global species definitions
      nucleus             6
      mass                12.0107
  #
      l_hartree           6
  #
      cut_pot             4.0  2.0  1.0
      basis_dep_cutoff    1e-4
  #
      radial_base         34 7.0
      radial_multiplier   2
      angular_grids specified
        division   0.2187   50
        division   0.4416  110
        division   0.6335  194
        division   0.7727  302
        division   0.8772  434
  #      division   0.9334  590
  #      division   0.9924  770
  #      division   1.0230  974
  #      division   1.5020 1202
  #     outer_grid  974
        outer_grid  434
  ################################################################################
  #
  #  Definition of "minimal" basis
  #
  ################################################################################
  #     valence basis states
      valence      2  s   2.
      valence      2  p   2.
  #     ion occupancy
      ion_occ      2  s   1.
      ion_occ      2  p   1.
  ################################################################################
  #
  #  Suggested additional basis functions. For production calculations,
  #  uncomment them one after another (the most important basis functions are
  #  listed first).
  #
  #  Constructed for dimers: 1.0 A, 1.25 A, 1.5 A, 2.0 A, 3.0 A
  #
  ################################################################################
  #  "First tier" - improvements: -1214.57 meV to -155.61 meV
       hydro 2 p 1.7
       hydro 3 d 6
       hydro 2 s 4.9
  #  "Second tier" - improvements: -67.75 meV to -5.23 meV
       hydro 4 f 9.8
       hydro 3 p 5.2
       hydro 3 s 4.3
       hydro 5 g 14.4
       hydro 3 d 6.2
  #  "Third tier" - improvements: -2.43 meV to -0.60 meV
  #     hydro 2 p 5.6
  #     hydro 2 s 1.4
  #     hydro 3 d 4.9
  #     hydro 4 f 11.2
  #  "Fourth tier" - improvements: -0.39 meV to -0.18 meV
  #     hydro 2 p 2.1
  #     hydro 5 g 16.4
  #     hydro 4 d 13.2
  #     hydro 3 s 13.6
  #     hydro 4 f 17.6
  #  Further basis functions - improvements: -0.08 meV and below
  #     hydro 3 s 2
  #     hydro 3 p 6
  #     hydro 4 d 20
  ################################################################################
  #
  #  FHI-aims code project
  # Volker Blum, Fritz Haber Institute Berlin, 2009
  #
  #  Suggested "tight" defaults for O atom (to be pasted into control.in file)
  #
  ################################################################################
    species        O
  #     global species definitions
      nucleus             8
      mass                15.9994
  #
      l_hartree           6
  #
      cut_pot             4.0  2.0  1.0
      basis_dep_cutoff    1e-4
  #
      radial_base         36 7.0
      radial_multiplier   2
       angular_grids specified
        division   0.1817   50
        division   0.3417  110
        division   0.4949  194
        division   0.6251  302
        division   0.8014  434
  #      division   0.8507  590
  #      division   0.8762  770
  #      division   0.9023  974
  #      division   1.2339 1202
  #      outer_grid 974
        outer_grid  434
  ################################################################################
  #
  #  Definition of "minimal" basis
  #
  ################################################################################
  #     valence basis states
      valence      2  s   2.
      valence      2  p   4.
  #     ion occupancy
      ion_occ      2  s   1.
      ion_occ      2  p   3.
  ################################################################################
  #
  #  Suggested additional basis functions. For production calculations,
  #  uncomment them one after another (the most important basis functions are
  #  listed first).
  #
  #  Constructed for dimers: 1.0 A, 1.208 A, 1.5 A, 2.0 A, 3.0 A
  #
  ################################################################################
  #  "First tier" - improvements: -699.05 meV to -159.38 meV
       hydro 2 p 1.8
       hydro 3 d 7.6
       hydro 3 s 6.4
  #  "Second tier" - improvements: -49.91 meV to -5.39 meV
       hydro 4 f 11.6
       hydro 3 p 6.2
       hydro 3 d 5.6
       hydro 5 g 17.6
       hydro 1 s 0.75
  #  "Third tier" - improvements: -2.83 meV to -0.50 meV
  #     ionic 2 p auto
  #     hydro 4 f 10.8
  #     hydro 4 d 4.7
  #     hydro 2 s 6.8
  #  "Fourth tier" - improvements: -0.40 meV to -0.12 meV
  #     hydro 3 p 5
  #     hydro 3 s 3.3
  #     hydro 5 g 15.6
  #     hydro 4 f 17.6
  #     hydro 4 d 14
  # Further basis functions - -0.08 meV and below
  #     hydro 3 s 2.1
  #     hydro 4 d 11.6
  #     hydro 3 p 16
  #     hydro 2 s 17.2
  ################################################################################
  #
  #  FHI-aims code project
  # Volker Blum, Fritz Haber Institute Berlin, 2010
  #
  #  Suggested "tight" defaults for Cu atom (to be pasted into control.in file)
  #
  ################################################################################
    species        Cu
  #
      nucleus      29
      mass         63.546
  #
      l_hartree    6
  #
      cut_pot      4.0  2.0  1.0
      basis_dep_cutoff    1e-4
  #
      radial_base        53 7.0
      radial_multiplier  2
      angular_grids       specified
        division   0.3478   50
        division   0.6638  110
        division   0.9718  194
        division   1.1992  302
        division   1.5920  434
  #      division   1.8557  590
  #      division   2.0466  770
  #      division   2.0877  974
  #      division   2.4589 1202
        outer_grid   434
  ################################################################################
  #
  #  Definition of "minimal" basis
  #
  ################################################################################
  #     valence basis states
      valence      4  s   1.
      valence      3  p   6.
      valence      3  d  10.
  #     ion occupancy
      ion_occ      4  s   0.
      ion_occ      3  p   6.
      ion_occ      3  d   9.
  ################################################################################
  #
  #  Suggested additional basis functions. For production calculations,
  #  uncomment them one after another (the most important basis functions are
  #  listed first).
  #
  #  Constructed for dimers: 1.8, 2.2, 3.0, 4.0 Ang
  #
  ################################################################################
  #  "First tier" - improvements: -211.42 meV to -9.17 meV
       ionic 4 p auto
       hydro 4 f 7.4
       hydro 3 s 2.6
       hydro 3 d 5
       hydro 5 g 10.4
  #  "Second tier" - improvements: -2.49 meV to -1.08 meV
  #     hydro 4 p 5.8
  #     hydro 3 d 2.7
  #     hydro 6 h 15.2
  #     hydro 5 s 10.8
  #     hydro 4 f 16
  #  "Third tier" - improvements: -0.50 meV to -0.21 meV
  #     hydro 4 d 6
  #     hydro 3 p 2.4
  #     hydro 4 f 6.4
  #     hydro 3 s 6.8
  #     hydro 5 g 11.2
  #  "Fourth tier" - improvements: -0.13 meV to -0.05 meV
  #     hydro 4 p 7
  #     hydro 4 s 4
  #     hydro 6 h 14
  #     hydro 4 d 8.6
  #     hydro 5 f 15.2
  
  ################################################################################
  #
  #  FHI-aims code project
  # Volker Blum, Fritz Haber Institute Berlin, 2009
  #
  #  Suggested "tight" defaults for Au atom (to be pasted into control.in file)
  #
  ################################################################################
    species        Au
  #     global species definitions
      nucleus             79
      mass                196.966569
  #
      l_hartree           6
  #
      cut_pot             4.0  2.0  1.0
      basis_dep_cutoff    1e-4
  #
      radial_base         73 7.0
      radial_multiplier   2
      angular_grids specified
        division   0.3416   50
        division   0.7206  110
        division   1.1171  194
        division   1.2821  302
        division   1.5560  434
  #      division   2.1046  590
  #      division   2.2363  770
  #      division   2.2710  974
  #      division   2.8078 1202
  #      outer_grid 1202
        outer_grid  434
   ################################################################################
  #
  #  Definition of "minimal" basis
  #
  ################################################################################
  #     valence basis states
      valence      6  s   1.
      valence      5  p   6.
      valence      5  d  10.
      valence      4  f  14.
  #     ion occupancy
      ion_occ     6  s   0.
      ion_occ     5  p   6.
      ion_occ     5  d   9.
      ion_occ     4  f   14.
  ################################################################################
  #
  #  Suggested additional basis functions. For production calculations,
  #  uncomment them one after another (the most important basis functions are
  #  listed first).
  #
  #  Constructed for dimers: 2.10, 2.45, 3.00, 4.00 AA
  #
  ################################################################################
  #  "First tier" - max. impr. -161.60  meV, min. impr. -4.53 meV
       ionic 6 p auto
       hydro 4 f 7.4
       ionic 6 s auto
       hydro 5 g 10
       hydro 6 h 12.8
       hydro 3 d 2.5
  #  "Second tier" - max. impr. -2.46  meV, min. impr. -0.28 meV
  #     hydro 5 f 14.8
  #     hydro 4 d 3.9
  #     hydro 3 p 3.3
  #     hydro 1 s 0.45
  #     hydro 5 g 16.4
  #     hydro 6 h 13.6
  #  "Third tier" - max. impr. -0.49  meV, min. impr. -0.09 meV
  #     hydro 4 f 5.2
  #     hydro 4 d 5
  #     hydro 5 g 8
  #     hydro 5 p 8.2
  #     hydro 6 d 12.4
  #     hydro 6 s 14.8
  #  Further basis functions: -0.08 meV and below
  #     hydro 5 f 18.8
  #     hydro 5 g 20
  #    hydro 5 g 15.2
  
  -----------------------------------------------------------------------
  Completed first pass over input file control.in .
  -----------------------------------------------------------------------
  
  
  -----------------------------------------------------------------------
  Parsing geometry.in (first pass over file, find array dimensions only).
  The contents of geometry.in will be repeated verbatim below
  unless switched off by setting 'verbatim_writeout .false.' .
  in the first line of geometry.in .
  -----------------------------------------------------------------------
  
    lattice_vector         9.03328156        0.00000000        0.00000000
    lattice_vector         1.80734715        8.85056338        0.00000000
    lattice_vector         0.01463727        0.00675914       25.81424533
  
              atom         3.54654505        6.67334530        0.17339652  Au
              atom         7.15935083        2.24815272        0.17340805  Au
              atom         5.22642487        4.35750568        0.35543960  Cu
              atom         8.83940656       -0.06774288        0.35541899  Cu
              atom         4.39489507        1.85151366        0.85848248  Au
              atom         9.81533956        6.27687149        0.85847153  Au
              atom         2.60467593        4.04427774        0.85857287  Au
              atom         8.02506254        8.46963378        0.85855751  Au
              atom         1.71991192        1.49472992        1.46959940  Au
              atom         7.14032211        5.92003025        1.46962056  Au
              atom         5.40297544        8.18901381        1.69485945  Cu
              atom         9.01590124        3.76376605        1.69485166  Cu
              atom         4.52920224        5.64052434        2.58186772  Au
              atom         8.14210721        1.21525847        2.58183533  Au
              atom         2.73111317        7.84284117        2.58177993  Au
              atom         6.34403844        3.41756260        2.58179031  Au
              atom         1.81431084        5.25936393        3.36107565  Au
  constrain_relaxation .true.
              atom         5.42727805        0.83408224        3.36107565  Au
  constrain_relaxation .true.
              atom         3.62138949        3.04673507        3.36269778  Cu
  constrain_relaxation .true.
              atom         9.04170385        7.47201676        3.36269778  Cu
  constrain_relaxation .true.
              atom         2.71803205        0.46560957        4.18668188  Au
  constrain_relaxation .true.
              atom         8.13834641        4.89089126        4.18668188  Au
  constrain_relaxation .true.
              atom         0.91170321        2.67803627        4.18707600  Au
  constrain_relaxation .true.
              atom         6.33201757        7.10331796        4.18707600  Au
  constrain_relaxation .true.
              atom         5.42878567        4.52238025        5.01226276  Au
  constrain_relaxation .true.
              atom         9.04175287        0.09709856        5.01226276  Au
  constrain_relaxation .true.
              atom         3.62289711        6.73503307        5.01388489  Cu
  constrain_relaxation .true.
              atom         7.23586432        2.30975138        5.01388489  Cu
  constrain_relaxation .true.
              atom         2.71953968        4.15390757        5.83786899  Au
  constrain_relaxation .true.
              atom         8.13985403        8.57918926        5.83786899  Au
  constrain_relaxation .true.
              atom         4.52617804        1.94105259        5.83826311  Au
  constrain_relaxation .true.
              atom         9.94649240        6.36633428        5.83826311  Au
  constrain_relaxation .true.
              atom         5.43029329        8.21067825        6.66344987  Au
  constrain_relaxation .true.
              atom         9.04326049        3.78539656        6.66344987  Au
  constrain_relaxation .true.
              atom         1.81705758        1.57276770        6.66507200  Cu
  constrain_relaxation .true.
              atom         7.23737194        5.99804939        6.66507200  Cu
  constrain_relaxation .true.
              atom         2.71606378        7.82939511        7.44378508  Au
              atom         6.32895051        3.40413648        7.44373201  Au
              atom         4.51368628        5.62753865        7.44388375  Au
              atom         8.12661884        1.20225089        7.44387175  Au
              atom         3.71729157        3.12455010        8.55570708  Au
              atom         9.13770014        7.54989746        8.55579232  Au
              atom         1.84195331        5.28084067        8.33019558  Cu
              atom         5.45487891        0.85558832        8.33019836  Cu
              atom         1.04223669        2.76804844        9.16691219  Au
              atom         6.46264550        7.19339879        9.16689611  Au
              atom         2.83291708        0.57482612        9.16703238  Au
              atom         8.25331499        5.00021210        9.16696296  Au
              atom         3.69852135        6.79667213        9.85171729  Au
              atom         7.31133656        2.37149225        9.85180038  Au
              atom         5.63141814        4.68724047        9.66998062  Cu
              atom         9.24435965        0.26195519        9.67000935  Cu
  
  -----------------------------------------------------------------------
  Completed first pass over input file geometry.in .
  -----------------------------------------------------------------------
  
 
  Basic array size parameters: 
  | Number of species                 :        5
  | Number of atoms                   :       52
  | Number of lattice vectors         :        3
  | Max. basis fn. angular momentum   :        5
  | Max. atomic/ionic basis occupied n:        6
  | Max. number of basis fn. types    :        3
  | Max. radial fns per species/type  :       14
  | Max. logarithmic grid size        :     1488
  | Max. radial integration grid size :      147
  | Max. angular integration grid size:      434
  | Max. angular grid division number :        8
  | Radial grid for Hartree potential :     1488
  | Number of spin channels           :        1

------------------------------------------------------------
          Reading file control.in.
------------------------------------------------------------
  XC: Using PBE gradient-corrected functionals.
  Charge =   0.000000E+00: Neutral system requested explicitly.
  Spin treatment: No spin polarisation.
  Scalar relativistic treatment of kinetic energy: on-site free-atom approximation to ZORA.
  Occupation type: Gaussian broadening, width =   0.100000E+00 eV.
  Using pulay charge density mixing.
  Pulay mixing - number of memorized iterations:   10
  Charge density mixing - mixing parameter:     0.1000
  Convergence accuracy of self-consistent charge density: 0.1000E-04
  Convergence accuracy of sum of eigenvalues: 0.1000E-02
  Convergence accuracy of total energy: 0.1000E-05
  Maximum number of s.-c. iterations  :  3000
  Kohn-Sham eigenvalues and eigenfunctions calculated by the ELPA eigensolver library.
  Found k-point grid:        12        12         1
  Geometry relaxation: Modified BFGS - TRM (trust radius method, i.e., trusted quadratic extrapolation).
  Convergence accuracy for geometry relaxation: Maximum force <   0.500000E-02 eV/A.
  Convergence accuracy of forces: 0.5000E-03
 
  Reading configuration options for species H                   .
  | Found nuclear charge :   1.0000
  | Found atomic mass :    1.00794000000000      amu
  | Found l_max for Hartree potential  :   6
  | Found cutoff potl. onset [A], width [A], scale factor :    4.00000    2.00000    1.00000
  | Threshold for basis-dependent cutoff potential is   0.100000E-03
  | Found data for basic radial integration grid :    24 points, outermost radius =    7.000 A
  | Found multiplier for basic radial grid :   2
  | Found angular grid specification: user-specified.
  | Specified grid contains     6 separate shells.
  | Check grid settings after all constraints further below.
  | Found free-atom valence shell :  1 s   1.000
  | Found free-ion valence shell :  1 s   0.500
  | Found hydrogenic basis function :  2 s   2.100
  | Found hydrogenic basis function :  2 p   3.500
  | Found hydrogenic basis function :  1 s   0.850
  | Found hydrogenic basis function :  2 p   3.700
  | Found hydrogenic basis function :  2 s   1.200
  | Found hydrogenic basis function :  3 d   7.000
  Species H                   : Missing cutoff potential type.
  Defaulting to exp(1/x)/(1-x)^2 type cutoff potential.
  Species H : No 'logarithmic' tag. Using default grid for free atom:
  | Default logarithmic grid data [bohr] : 0.1000E-03 0.1000E+03 0.1012E+01
  Species H : On-site basis accuracy parameter (for Gram-Schmidt orthonormalisation) not specified.
  Using default value basis_acc =  0.1000000E-03.
  Species H                   : Using default innermost maximum threshold i_radial=  2 for radial functions.
  Species H                   : Default cutoff onset for free atom density etc. : 0.40000000E+01 AA.
  Species H                   : Basic radial grid will be enhanced according to radial_multiplier =   2, to contain    49 grid points.
 
  Reading configuration options for species C                   .
  | Found nuclear charge :   6.0000
  | Found atomic mass :    12.0107000000000      amu
  | Found l_max for Hartree potential  :   6
  | Found cutoff potl. onset [A], width [A], scale factor :    4.00000    2.00000    1.00000
  | Threshold for basis-dependent cutoff potential is   0.100000E-03
  | Found data for basic radial integration grid :    34 points, outermost radius =    7.000 A
  | Found multiplier for basic radial grid :   2
  | Found angular grid specification: user-specified.
  | Specified grid contains     6 separate shells.
  | Check grid settings after all constraints further below.
  | Found free-atom valence shell :  2 s   2.000
  | Found free-atom valence shell :  2 p   2.000
  | Found free-ion valence shell :  2 s   1.000
  | Found free-ion valence shell :  2 p   1.000
  | Found hydrogenic basis function :  2 p   1.700
  | Found hydrogenic basis function :  3 d   6.000
  | Found hydrogenic basis function :  2 s   4.900
  | Found hydrogenic basis function :  4 f   9.800
  | Found hydrogenic basis function :  3 p   5.200
  | Found hydrogenic basis function :  3 s   4.300
  | Found hydrogenic basis function :  5 g  14.400
  | Found hydrogenic basis function :  3 d   6.200
  Species C                   : Missing cutoff potential type.
  Defaulting to exp(1/x)/(1-x)^2 type cutoff potential.
  Species C : No 'logarithmic' tag. Using default grid for free atom:
  | Default logarithmic grid data [bohr] : 0.1000E-03 0.1000E+03 0.1012E+01
  Species C : On-site basis accuracy parameter (for Gram-Schmidt orthonormalisation) not specified.
  Using default value basis_acc =  0.1000000E-03.
  Species C                   : Using default innermost maximum threshold i_radial=  2 for radial functions.
  Species C                   : Default cutoff onset for free atom density etc. : 0.40000000E+01 AA.
  Species C                   : Basic radial grid will be enhanced according to radial_multiplier =   2, to contain    69 grid points.
 
  Reading configuration options for species O                   .
  | Found nuclear charge :   8.0000
  | Found atomic mass :    15.9994000000000      amu
  | Found l_max for Hartree potential  :   6
  | Found cutoff potl. onset [A], width [A], scale factor :    4.00000    2.00000    1.00000
  | Threshold for basis-dependent cutoff potential is   0.100000E-03
  | Found data for basic radial integration grid :    36 points, outermost radius =    7.000 A
  | Found multiplier for basic radial grid :   2
  | Found angular grid specification: user-specified.
  | Specified grid contains     6 separate shells.
  | Check grid settings after all constraints further below.
  | Found free-atom valence shell :  2 s   2.000
  | Found free-atom valence shell :  2 p   4.000
  | Found free-ion valence shell :  2 s   1.000
  | Found free-ion valence shell :  2 p   3.000
  | Found hydrogenic basis function :  2 p   1.800
  | Found hydrogenic basis function :  3 d   7.600
  | Found hydrogenic basis function :  3 s   6.400
  | Found hydrogenic basis function :  4 f  11.600
  | Found hydrogenic basis function :  3 p   6.200
  | Found hydrogenic basis function :  3 d   5.600
  | Found hydrogenic basis function :  5 g  17.600
  | Found hydrogenic basis function :  1 s   0.750
  Species O                   : Missing cutoff potential type.
  Defaulting to exp(1/x)/(1-x)^2 type cutoff potential.
  Species O : No 'logarithmic' tag. Using default grid for free atom:
  | Default logarithmic grid data [bohr] : 0.1000E-03 0.1000E+03 0.1012E+01
  Species O : On-site basis accuracy parameter (for Gram-Schmidt orthonormalisation) not specified.
  Using default value basis_acc =  0.1000000E-03.
  Species O                   : Using default innermost maximum threshold i_radial=  2 for radial functions.
  Species O                   : Default cutoff onset for free atom density etc. : 0.40000000E+01 AA.
  Species O                   : Basic radial grid will be enhanced according to radial_multiplier =   2, to contain    73 grid points.
 
  Reading configuration options for species Cu                  .
  | Found nuclear charge :  29.0000
  | Found atomic mass :    63.5460000000000      amu
  | Found l_max for Hartree potential  :   6
  | Found cutoff potl. onset [A], width [A], scale factor :    4.00000    2.00000    1.00000
  | Threshold for basis-dependent cutoff potential is   0.100000E-03
  | Found data for basic radial integration grid :    53 points, outermost radius =    7.000 A
  | Found multiplier for basic radial grid :   2
  | Found angular grid specification: user-specified.
  | Specified grid contains     6 separate shells.
  | Check grid settings after all constraints further below.
  | Found free-atom valence shell :  4 s   1.000
  | Found free-atom valence shell :  3 p   6.000
  | Found free-atom valence shell :  3 d  10.000
  | Found free-ion valence shell :  4 s   0.000
  | Found free-ion valence shell :  3 p   6.000
  | Found free-ion valence shell :  3 d   9.000
  | Found ionic basis function :  4 p , default cutoff radius.
  | Found hydrogenic basis function :  4 f   7.400
  | Found hydrogenic basis function :  3 s   2.600
  | Found hydrogenic basis function :  3 d   5.000
  | Found hydrogenic basis function :  5 g  10.400
  Species Cu                  : Missing cutoff potential type.
  Defaulting to exp(1/x)/(1-x)^2 type cutoff potential.
  Species Cu: No 'logarithmic' tag. Using default grid for free atom:
  | Default logarithmic grid data [bohr] : 0.1000E-03 0.1000E+03 0.1012E+01
  | Will include ionic basis functions of  2.0-fold positive Cu                   ion.
  Species Cu: On-site basis accuracy parameter (for Gram-Schmidt orthonormalisation) not specified.
  Using default value basis_acc =  0.1000000E-03.
  Species Cu                  : Using default innermost maximum threshold i_radial=  2 for radial functions.
  Species Cu                  : Default cutoff onset for free atom density etc. : 0.40000000E+01 AA.
  Species Cu                  : Basic radial grid will be enhanced according to radial_multiplier =   2, to contain   107 grid points.
 
  Reading configuration options for species Au                  .
  | Found nuclear charge :  79.0000
  | Found atomic mass :    196.966569000000      amu
  | Found l_max for Hartree potential  :   6
  | Found cutoff potl. onset [A], width [A], scale factor :    4.00000    2.00000    1.00000
  | Threshold for basis-dependent cutoff potential is   0.100000E-03
  | Found data for basic radial integration grid :    73 points, outermost radius =    7.000 A
  | Found multiplier for basic radial grid :   2
  | Found angular grid specification: user-specified.
  | Specified grid contains     6 separate shells.
  | Check grid settings after all constraints further below.
  | Found free-atom valence shell :  6 s   1.000
  | Found free-atom valence shell :  5 p   6.000
  | Found free-atom valence shell :  5 d  10.000
  | Found free-atom valence shell :  4 f  14.000
  | Found free-ion valence shell :  6 s   0.000
  | Found free-ion valence shell :  5 p   6.000
  | Found free-ion valence shell :  5 d   9.000
  | Found free-ion valence shell :  4 f  14.000
  | Found ionic basis function :  6 p , default cutoff radius.
  | Found hydrogenic basis function :  4 f   7.400
  | Found ionic basis function :  6 s , default cutoff radius.
  | Found hydrogenic basis function :  5 g  10.000
  | Found hydrogenic basis function :  6 h  12.800
  | Found hydrogenic basis function :  3 d   2.500
  Species Au                  : Missing cutoff potential type.
  Defaulting to exp(1/x)/(1-x)^2 type cutoff potential.
  Species Au: No 'logarithmic' tag. Using default grid for free atom:
  | Default logarithmic grid data [bohr] : 0.1000E-03 0.1000E+03 0.1012E+01
  | Will include ionic basis functions of  2.0-fold positive Au                   ion.
  Species Au: On-site basis accuracy parameter (for Gram-Schmidt orthonormalisation) not specified.
  Using default value basis_acc =  0.1000000E-03.
  Species Au                  : Using default innermost maximum threshold i_radial=  2 for radial functions.
  Species Au                  : Default cutoff onset for free atom density etc. : 0.40000000E+01 AA.
  Species Au                  : Basic radial grid will be enhanced according to radial_multiplier =   2, to contain   147 grid points.
 
  Finished reading input file 'control.in'. Consistency checks are next.
 
  Target number of points in a grid batch is not set. Defaulting to  100
  Method for grid partitioning is not set. Defaulting to parallel hash+maxmin partitioning.
  Batch size limit is not set. Defaulting to    200
  By default, will store active basis functions for each batch.
  If in need of memory, prune_basis_once .false. can be used to disable this option.
  communication_type for Hartree potential was not specified.
  Defaulting to calc_hartree .
  Pulay mixer: Number of initial linear mixing iterations not set.
  Defaulting to    0 iterations.
  Work space size for distributed Hartree potential not set.
  Defaulting to   0.200000E+03 MB.
  Algorithm-dependent basis array size parameters:
  | n_max_pulay                         :       10
  No maximum number of relaxation steps, defaulting to     1000
  Default initial Hessian is Lindh matrix (thres = 15.00) plus  0.200000E+01 eV/A^2 times unity.
  No maximum energy tolerance for TRM/BFGS moves, defaulting to   0.200000E-03
  No harmonic length scale. Defaulting to   0.250000E-01 A.
  No trust radius initializer. Defaulting to   0.200000E+00 A.
  Handling of forces: Unphysical translation and rotation will be removed from forces.
  No accuracy limit for integral partition fn. given. Defaulting to 0.1000E-14.
  No threshold value for u(r) in integrations given. Defaulting to 0.1000E-05.
  No accuracy for occupation numbers given. Defaulting to 0.1000E-07.
  No threshold value for occupation numbers given. Defaulting to 0.0000E+00.
  No accuracy for fermi level given. Defaulting to 0.1000E-19.
  Maximum # of iterations to find E_F not set. Defaulting to  200.
* WARNING: Requested Scalapack run without having it compiled into the binary.
* Using lapack_fast instead.
  Will not use alltoall communication since running on < 1024 CPUs.
  Threshold for basis singularities not set.
  Default threshold for basis singularities: 0.1000E-04
  partition_type (choice of integration weights) for integrals was not specified.
  | Using a version of the partition function of Stratmann and coworkers ('stratmann_smoother').
  | At each grid point, the set of atoms used to build the partition table is smoothly restricted to
  | only those atoms whose free-atom density would be non-zero at that grid point.
  Partitioning for Hartree potential was not defined. Using partition_type for integrals.
  | Adjusted default value of keyword multip_moments_threshold to:       0.10000000E-11
  | This value may affect high angular momentum components of the Hartree potential in periodic systems.
  Angular momentum expansion for Kerker preconditioner not set explicitly.
  | Using default value of   0
  No explicit requirement for turning off preconditioner.
  | By default, it will be turned off when the charge convergence reaches
  | sc_accuracy_rho  =   0.100000E-04
  | sc_accuracy_eev  =   0.100000E-02
  | sc_accuracy_etot =   0.100000E-05
  No special mixing parameter while Kerker preconditioner is on.
  Using default: charge_mix_param =     0.1000.
  No q(lm)/r^(l+1) cutoff set for long-range Hartree potential.
  | Using default value of  0.100000E-09 .
  | Verify using the multipole_threshold keyword.
  Defaulting to new monopole extrapolation.
  Density update method: automatic selection selected.
  Using density matrix based charge density update.
  Using density matrix based charge density update.
  Using packed matrix style: index .
  Defaulting to use time-reversal symmetry for k-point grid.
------------------------------------------------------------


------------------------------------------------------------
          Reading geometry description geometry.in.
------------------------------------------------------------
  Found relaxation constraint for atom     17: All coordinates fixed.
  Found relaxation constraint for atom     18: All coordinates fixed.
  Found relaxation constraint for atom     19: All coordinates fixed.
  Found relaxation constraint for atom     20: All coordinates fixed.
  Found relaxation constraint for atom     21: All coordinates fixed.
  Found relaxation constraint for atom     22: All coordinates fixed.
  Found relaxation constraint for atom     23: All coordinates fixed.
  Found relaxation constraint for atom     24: All coordinates fixed.
  Found relaxation constraint for atom     25: All coordinates fixed.
  Found relaxation constraint for atom     26: All coordinates fixed.
  Found relaxation constraint for atom     27: All coordinates fixed.
  Found relaxation constraint for atom     28: All coordinates fixed.
  Found relaxation constraint for atom     29: All coordinates fixed.
  Found relaxation constraint for atom     30: All coordinates fixed.
  Found relaxation constraint for atom     31: All coordinates fixed.
  Found relaxation constraint for atom     32: All coordinates fixed.
  Found relaxation constraint for atom     33: All coordinates fixed.
  Found relaxation constraint for atom     34: All coordinates fixed.
  Found relaxation constraint for atom     35: All coordinates fixed.
  Found relaxation constraint for atom     36: All coordinates fixed.
  Input structure read successfully.
  The structure contains       52 atoms,  and a total of       3408.000 electrons.

  Input geometry:
  | Unit cell:
  |         9.033282         0.000000         0.000000
  |         1.807347         8.850563         0.000000
  |         0.014637         0.006759        25.814245
  | Atomic structure:
  |       Atom                x [A]            y [A]            z [A]
  |    1: Species Au         3.546545         6.673345         0.173397
  |    2: Species Au         7.159351         2.248153         0.173408
  |    3: Species Cu         5.226425         4.357506         0.355440
  |    4: Species Cu         8.839407        -0.067743         0.355419
  |    5: Species Au         4.394895         1.851514         0.858482
  |    6: Species Au         9.815340         6.276871         0.858472
  |    7: Species Au         2.604676         4.044278         0.858573
  |    8: Species Au         8.025063         8.469634         0.858558
  |    9: Species Au         1.719912         1.494730         1.469599
  |   10: Species Au         7.140322         5.920030         1.469621
  |   11: Species Cu         5.402975         8.189014         1.694859
  |   12: Species Cu         9.015901         3.763766         1.694852
  |   13: Species Au         4.529202         5.640524         2.581868
  |   14: Species Au         8.142107         1.215258         2.581835
  |   15: Species Au         2.731113         7.842841         2.581780
  |   16: Species Au         6.344038         3.417563         2.581790
  |   17: Species Au         1.814311         5.259364         3.361076
  |   18: Species Au         5.427278         0.834082         3.361076
  |   19: Species Cu         3.621389         3.046735         3.362698
  |   20: Species Cu         9.041704         7.472017         3.362698
  |   21: Species Au         2.718032         0.465610         4.186682
  |   22: Species Au         8.138346         4.890891         4.186682
  |   23: Species Au         0.911703         2.678036         4.187076
  |   24: Species Au         6.332018         7.103318         4.187076
  |   25: Species Au         5.428786         4.522380         5.012263
  |   26: Species Au         9.041753         0.097099         5.012263
  |   27: Species Cu         3.622897         6.735033         5.013885
  |   28: Species Cu         7.235864         2.309751         5.013885
  |   29: Species Au         2.719540         4.153908         5.837869
  |   30: Species Au         8.139854         8.579189         5.837869
  |   31: Species Au         4.526178         1.941053         5.838263
  |   32: Species Au         9.946492         6.366334         5.838263
  |   33: Species Au         5.430293         8.210678         6.663450
  |   34: Species Au         9.043260         3.785397         6.663450
  |   35: Species Cu         1.817058         1.572768         6.665072
  |   36: Species Cu         7.237372         5.998049         6.665072
  |   37: Species Au         2.716064         7.829395         7.443785
  |   38: Species Au         6.328951         3.404136         7.443732
  |   39: Species Au         4.513686         5.627539         7.443884
  |   40: Species Au         8.126619         1.202251         7.443872
  |   41: Species Au         3.717292         3.124550         8.555707
  |   42: Species Au         9.137700         7.549897         8.555792
  |   43: Species Cu         1.841953         5.280841         8.330196
  |   44: Species Cu         5.454879         0.855588         8.330198
  |   45: Species Au         1.042237         2.768048         9.166912
  |   46: Species Au         6.462645         7.193399         9.166896
  |   47: Species Au         2.832917         0.574826         9.167032
  |   48: Species Au         8.253315         5.000212         9.166963
  |   49: Species Au         3.698521         6.796672         9.851717
  |   50: Species Au         7.311337         2.371492         9.851800
  |   51: Species Cu         5.631418         4.687240         9.669981
  |   52: Species Cu         9.244360         0.261955         9.670009
  |
  | Closest distance between atoms is    2.663 AA.

  Quantities derived from the lattice vectors:
  | Reciprocal lattice vector 1:  0.695560 -0.142038 -0.000357
  | Reciprocal lattice vector 2: -0.000000  0.709919 -0.000186
  | Reciprocal lattice vector 3:  0.000000  0.000000  0.243400
  | Unit cell volume                               :   0.206384E+04  A^3

  Number of empty states per atom not set in control.in - providing a guess from actual geometry.
  | Total number of empty states used during s.c.f. cycle:      419
  If you use a very high smearing, use empty_states (per atom!) in control.in to increase this value.

  Structure-dependent array size parameters: 
  | Maximum number of distinct radial functions  :       61
  | Maximum number of basis functions            :     3448
  | Number of Kohn-Sham states (occupied + empty):     2123
------------------------------------------------------------

------------------------------------------------------------
          Preparing all fixed parts of the calculation.
------------------------------------------------------------
  Determining machine precision:
    2.225073858507201E-308
  Setting up grids for atomic and cluster calculations.

  Creating wave function, potential, and density for free atoms.

  Species: H

  List of occupied orbitals and eigenvalues:
    n    l              occ      energy [Ha]    energy [eV]
    1    0           1.0000        -0.238386        -6.4868


  Species: C

  List of occupied orbitals and eigenvalues:
    n    l              occ      energy [Ha]    energy [eV]
    1    0           2.0000       -10.049212      -273.4530
    2    0           2.0000        -0.504761       -13.7352
    2    1           2.0000        -0.193631        -5.2690


  Species: O

  List of occupied orbitals and eigenvalues:
    n    l              occ      energy [Ha]    energy [eV]
    1    0           2.0000       -18.927378      -515.0401
    2    0           2.0000        -0.880539       -23.9607
    2    1           4.0000        -0.331811        -9.0290


  Species: Cu

  List of occupied orbitals and eigenvalues:
    n    l              occ      energy [Ha]    energy [eV]
    1    0           2.0000      -328.699981     -8944.3816
    2    0           2.0000       -39.104975     -1064.1005
    3    0           2.0000        -4.213299      -114.6497
    4    0           1.0000        -0.167360        -4.5541
    2    1           6.0000       -33.744053      -918.2224
    3    1           6.0000        -2.648604       -72.0722
    3    2          10.0000        -0.183215        -4.9855


  Species: Au

  List of occupied orbitals and eigenvalues:
    n    l              occ      energy [Ha]    energy [eV]
    1    0           2.0000     -3256.434633    -88612.0949
    2    0           2.0000      -533.658033    -14521.5739
    3    0           2.0000      -124.235224     -3380.6125
    4    0           2.0000       -26.846951      -730.5427
    5    0           2.0000        -3.977367      -108.2297
    6    0           1.0000        -0.210392        -5.7251
    2    1           6.0000      -460.387254    -12527.7746
    3    1           6.0000      -103.452063     -2815.0739
    4    1           6.0000       -20.078917      -546.3751
    5    1           6.0000        -2.192843       -59.6703
    3    2          10.0000       -81.367955     -2214.1347
    4    2          10.0000       -11.978294      -325.9460
    5    2          10.0000        -0.251979        -6.8567
    4    3          14.0000        -2.988656       -81.3255

  Creating fixed part of basis set: Ionic, confined, hydrogenic.
 
  H                    hydrogenic:
 
  List of hydrogenic basis orbitals: 
    n    l      effective z      eigenvalue [eV]  inner max. [A]     outer max. [A]     outer radius [A]   
    2    0         2.100000       -14.9965           0.193243           1.317208           5.373006
    2    1         3.500000       -41.6672           0.602369           0.602369           4.056063
    1    0         0.850000        -9.8292           0.624871           0.624871           5.373006
    2    1         3.700000       -46.5653           0.573622           0.573622           3.910002
    2    0         1.200000        -4.5995           0.334980           2.228188           5.505995
    3    2         7.000000       -74.0753           0.680699           0.680699           3.769201
 
 
  C                    hydrogenic:
 
  List of hydrogenic basis orbitals: 
    n    l      effective z      eigenvalue [eV]  inner max. [A]     outer max. [A]     outer radius [A]   
    2    1         1.700000        -9.8152           1.245706           1.245706           5.401630
    3    2         6.000000       -54.4226           0.792453           0.792453           4.178599
    2    0         4.900000       -81.6681           0.082559           0.562749           3.353238
    4    3         9.800000       -81.6681           0.863254           0.863254           4.028125
    3    1         5.200000       -40.8774           0.305389           1.215618           4.898362
    3    0         4.300000       -27.9508           0.091041           1.610311           5.401630
    5    4        14.400000      -112.8510           0.917666           0.917666           3.883070
    3    2         6.200000       -58.1113           0.763917           0.763917           4.077671
 
 
  O                    hydrogenic:
 
  List of hydrogenic basis orbitals: 
    n    l      effective z      eigenvalue [eV]  inner max. [A]     outer max. [A]     outer radius [A]   
    2    1         1.800000       -11.0118           1.178562           1.178562           5.432602
    3    2         7.600000       -87.3182           0.624125           0.624125           3.541477
    3    0         6.400000       -61.9209           0.061167           1.081902           4.306578
    4    3        11.600000      -114.4238           0.731631           0.731631           3.585037
    3    1         6.200000       -58.1113           0.255680           1.030270           4.306578
    3    2         5.600000       -47.4081           0.847233           0.847233           4.413171
    5    4        17.600000      -168.5799           0.749740           0.749740           3.372465
    1    0         0.750000        -7.6499           0.705284           0.705284           5.366593
 
 
  Cu                   ion:

  List of free ionic orbitals and eigenvalues:
    n    l      energy [Ha]    energy [eV]
    1    0      -329.653429     -8970.3262
    2    0       -40.053714     -1089.9170
    3    0        -5.155617      -140.2915
    2    1       -34.692083      -944.0196
    3    1        -3.586956       -97.6060
    3    2        -1.088907       -29.6307


  List of ionic basis orbitals and eigenvalues:
    n    l      energy [Ha]    energy [eV]    outer radius [A]
    4    1        -0.563838       -15.3428       5.409666

 
  Cu                   hydrogenic:
 
  List of hydrogenic basis orbitals: 
    n    l      effective z      eigenvalue [eV]  inner max. [A]     outer max. [A]     outer radius [A]   
    4    3         7.400000       -46.5653           1.145240           1.145240           4.905649
    3    0         2.600000        -9.8948           0.150509           2.597861           5.476205
    3    2         5.000000       -37.7934           0.953362           0.953362           4.728994
    5    4        10.400000       -58.8635           1.278438           1.278438           4.905649
 
 
  Au                   ion:

  List of free ionic orbitals and eigenvalues:
    n    l      energy [Ha]    energy [eV]
    1    0     -3257.305345    -88635.7882
    2    0      -534.468969    -14543.6406
    3    0      -125.037161     -3402.4343
    4    0       -27.646714      -752.3054
    5    0        -4.773414      -129.8912
    2    1      -461.196653    -12549.7994
    3    1      -104.253556     -2836.8836
    4    1       -20.878488      -568.1326
    5    1        -2.984283       -81.2065
    3    2       -82.168946     -2235.9308
    4    2       -12.777596      -347.6961
    5    2        -1.004504       -27.3340
    4    3        -3.787521      -103.0637


  List of ionic basis orbitals and eigenvalues:
    n    l      energy [Ha]    energy [eV]    outer radius [A]
    6    1        -0.536435       -14.5971       5.411271
    6    0        -0.835588       -22.7375       5.090413

 
  Au                   hydrogenic:
 
  List of hydrogenic basis orbitals: 
    n    l      effective z      eigenvalue [eV]  inner max. [A]     outer max. [A]     outer radius [A]   
    4    3         7.400000       -46.5653           1.145580           1.145580           4.907105
    5    4        10.000000       -54.4226           1.326589           1.326589           5.028562
    6    5        12.800000       -61.9208           1.480879           1.480879           5.153025
    3    2         2.500000        -9.3396           1.868078           1.868078           5.477829
 

  Adding cutoff potential to free-atom effective potential.
  Creating atomic-like basis functions for current effective potential.

  Species H                   :

  List of atomic basis orbitals and eigenvalues:
    n    l      energy [Ha]    energy [eV]    outer radius [A]
    1    0        -0.238386        -6.4868       5.373006


  Species C                   :

  List of atomic basis orbitals and eigenvalues:
    n    l      energy [Ha]    energy [eV]    outer radius [A]
    1    0       -10.049212      -273.4530       1.934409
    2    0        -0.504761       -13.7352       5.271162
    2    1        -0.193631        -5.2690       5.401630


  Species O                   :

  List of atomic basis orbitals and eigenvalues:
    n    l      energy [Ha]    energy [eV]    outer radius [A]
    1    0       -18.927378      -515.0401       1.415765
    2    0        -0.880539       -23.9607       5.048385
    2    1        -0.331811        -9.0290       5.301386


  Species Cu                  :

  List of atomic basis orbitals and eigenvalues:
    n    l      energy [Ha]    energy [eV]    outer radius [A]
    1    0      -328.699981     -8944.3816       0.367398
    2    0       -39.104975     -1064.1005       1.064244
    3    0        -4.213299      -114.6497       3.082799
    4    0        -0.167360        -4.5541       5.409666
    2    1       -33.744053      -918.2224       1.117579
    3    1        -2.648604       -72.0722       3.748807
    3    2        -0.183215        -4.9855       5.343935


  Species Au                  :

  List of atomic basis orbitals and eigenvalues:
    n    l      energy [Ha]    energy [eV]    outer radius [A]
    1    0     -3256.434633    -88612.0949       0.120816
    2    0      -533.658033    -14521.5739       0.313506
    3    0      -124.235224     -3380.6125       0.652830
    4    0       -26.846951      -730.5427       1.359424
    5    0        -3.977367      -108.2297       3.318406
    6    0        -0.210392        -5.7251       5.411271
    2    1      -460.387254    -12527.7746       0.329217
    3    1      -103.452063     -2815.0739       0.702515
    4    1       -20.078917      -546.3751       1.536198
    5    1        -2.192843       -59.6703       4.237546
    3    2       -81.367955     -2214.1347       0.755981
    4    2       -11.978294      -325.9460       1.868078
    5    2        -0.251979        -6.8567       5.345521
    4    3        -2.988656       -81.3255       3.160040

  Assembling full basis from fixed parts.
  | Species H :   atomic orbital   1 s accepted.
  | Species H :    hydro orbital   2 s accepted.
  | Species H :    hydro orbital   1 s accepted.
  | Species H :    hydro orbital   2 s accepted.
  | Species H :    hydro orbital   2 p accepted.
  | Species H :    hydro orbital   2 p accepted.
  | Species H :    hydro orbital   3 d accepted.
  | Species C :   atomic orbital   1 s accepted.
  | Species C :    hydro orbital   2 s accepted.
  | Species C :   atomic orbital   2 s accepted.
  | Species C :    hydro orbital   3 s accepted.
  | Species C :    hydro orbital   3 p accepted.
  | Species C :   atomic orbital   2 p accepted.
  | Species C :    hydro orbital   2 p accepted.
  | Species C :    hydro orbital   3 d accepted.
  | Species C :    hydro orbital   3 d accepted.
  | Species C :    hydro orbital   4 f accepted.
  | Species C :    hydro orbital   5 g accepted.
  | Species O :   atomic orbital   1 s accepted.
  | Species O :    hydro orbital   3 s accepted.
  | Species O :   atomic orbital   2 s accepted.
  | Species O :    hydro orbital   1 s accepted.
  | Species O :    hydro orbital   3 p accepted.
  | Species O :   atomic orbital   2 p accepted.
  | Species O :    hydro orbital   2 p accepted.
  | Species O :    hydro orbital   3 d accepted.
  | Species O :    hydro orbital   3 d accepted.
  | Species O :    hydro orbital   4 f accepted.
  | Species O :    hydro orbital   5 g accepted.
  | Species Cu :   atomic orbital   1 s accepted.
  | Species Cu :   atomic orbital   2 s accepted.
  | Species Cu :   atomic orbital   3 s accepted.
  | Species Cu :   atomic orbital   4 s accepted.
  | Species Cu :    hydro orbital   3 s accepted.
  | Species Cu :   atomic orbital   2 p accepted.
  | Species Cu :   atomic orbital   3 p accepted.
  | Species Cu :    ionic orbital   4 p accepted.
  | Species Cu :    hydro orbital   3 d accepted.
  | Species Cu :   atomic orbital   3 d accepted.
  | Species Cu :    hydro orbital   4 f accepted.
  | Species Cu :    hydro orbital   5 g accepted.
  | Species Au :   atomic orbital   1 s accepted.
  | Species Au :   atomic orbital   2 s accepted.
  | Species Au :   atomic orbital   3 s accepted.
  | Species Au :   atomic orbital   4 s accepted.
  | Species Au :   atomic orbital   5 s accepted.
  | Species Au :    ionic orbital   6 s accepted.
  | Species Au :   atomic orbital   6 s accepted.
  | Species Au :   atomic orbital   2 p accepted.
  | Species Au :   atomic orbital   3 p accepted.
  | Species Au :   atomic orbital   4 p accepted.
  | Species Au :   atomic orbital   5 p accepted.
  | Species Au :    ionic orbital   6 p accepted.
  | Species Au :   atomic orbital   3 d accepted.
  | Species Au :   atomic orbital   4 d accepted.
  | Species Au :   atomic orbital   5 d accepted.
  | Species Au :    hydro orbital   3 d accepted.
  | Species Au :   atomic orbital   4 f accepted.
  | Species Au :    hydro orbital   4 f accepted.
  | Species Au :    hydro orbital   5 g accepted.
  | Species Au :    hydro orbital   6 h accepted.
 
  Basis size parameters after reduction:
  | Total number of radial functions:       61
  | Total number of basis functions :     3448
 
  Preparing densities etc. for the partition functions (integrals / Hartree potential).

  Preparations completed.
  max(cpu_time)          :      0.858 s.
  Wall clock time (cpu1) :      0.857 s.
------------------------------------------------------------

------------------------------------------------------------
          Begin self-consistency loop: Initialization.

          Date     :  20130529, Time     :  102624.019
------------------------------------------------------------

  Initializing index lists of integration centers etc. from given atomic structure:
  Mapping all atomic coordinates to central unit cell.

  Initializing the k-points
          Using symmetry for reducing the k-points
  | k-points reduced from:      144 to       74
  | Number of k-points                             :        74
  The eigenvectors in the calculations are COMPLEX.
  | K-points in task   0:         4
  | K-points in task   1:         5
  | K-points in task   2:         5
  | K-points in task   3:         5
  | K-points in task   4:         5
  | K-points in task   5:         5
  | K-points in task   6:         5
  | K-points in task   7:         5
  | K-points in task   8:         5
  | K-points in task   9:         5
  | K-points in task  10:         5
  | K-points in task  11:         4
  | K-points in task  12:         4
  | K-points in task  13:         4
  | K-points in task  14:         4
  | K-points in task  15:         4
  | Number of basis functions in the Hamiltonian integrals :     14219
  | Number of basis functions in a single unit cell        :      3448
  | Number of centers in hartree potential         :       687
  | Number of centers in hartree multipole         :       634
  | Number of centers in electron density summation:       529
  | Number of centers in basis integrals           :       593
  | Number of centers in integrals                 :       330
  | Consuming         35 KiB for k_phase.
  | Number of super-cells :                  31
  | Size of matrix packed + index :    12810990
  Initializing relaxation algorithms.
  Partitioning the integration grid into batches with parallel hashing+maxmin method.
  | Number of batches:    14504
  | Maximal batch size:     180
  | Minimal batch size:      53
  | Average batch size:      98.506
  | Standard deviation of batch sizes:      28.128

  Integration load balanced across    16 MPI tasks.
  Work distribution over tasks is as follows:
  Task     0 has      89207 integration points.
  Task     1 has      89333 integration points.
  Task     2 has      89345 integration points.
  Task     3 has      89231 integration points.
  Task     4 has      89324 integration points.
  Task     5 has      89292 integration points.
  Task     6 has      89297 integration points.
  Task     7 has      89317 integration points.
  Task     8 has      89296 integration points.
  Task     9 has      89326 integration points.
  Task    10 has      89317 integration points.
  Task    11 has      89300 integration points.
  Task    12 has      89296 integration points.
  Task    13 has      89334 integration points.
  Task    14 has      89221 integration points.
  Task    15 has      89292 integration points.
  Initializing partition tables, free-atom densities, potentials, etc.
  across the integration grid (initialize_grid_storage).
  | initialize_grid_storage: Actual outermost partition radius vs. multipole_radius_free
  | (-- VB: in principle, multipole_radius_free should be larger, hence this output)
  | Species        1: outer_partition_radius =              6.000000000000000 AA, multipole_radius_free =              6.071692442739658 AA.
  | Species        2: outer_partition_radius =              6.000000000000000 AA, multipole_radius_free =              6.029870734432609 AA.
  | Species        3: outer_partition_radius =              6.000000000000000 AA, multipole_radius_free =              6.064445521808699 AA.
  | Species        4: outer_partition_radius =              6.000000000000000 AA, multipole_radius_free =              6.038841212042898 AA.
  | Species        5: outer_partition_radius =              6.000000000000000 AA, multipole_radius_free =              6.040632965187119 AA.
  | Net number of integration points:  1428728
  | of which are non-zero points    :  1122835
  | Average free-atom electrostatic potential              :    -11.10703030 eV
  Obtaining max. number of non-zero basis functions in each batch (get_n_compute_maxes).
  | Maximal number of non-zero basis functions:     2066 in task     0
  | Maximal number of non-zero basis functions:     2050 in task     1
  | Maximal number of non-zero basis functions:     2028 in task     2
  | Maximal number of non-zero basis functions:     2045 in task     3
  | Maximal number of non-zero basis functions:     2015 in task     4
  | Maximal number of non-zero basis functions:     2021 in task     5
  | Maximal number of non-zero basis functions:     2049 in task     6
  | Maximal number of non-zero basis functions:     2026 in task     7
  | Maximal number of non-zero basis functions:     2032 in task     8
  | Maximal number of non-zero basis functions:     2027 in task     9
  | Maximal number of non-zero basis functions:     2003 in task    10
  | Maximal number of non-zero basis functions:     2003 in task    11
  | Maximal number of non-zero basis functions:     2037 in task    12
  | Maximal number of non-zero basis functions:     2023 in task    13
  | Maximal number of non-zero basis functions:     2030 in task    14
  | Maximal number of non-zero basis functions:     2027 in task    15
  Integrating Hamiltonian matrix: batch-based integration.
  Time summed over all CPUs for integration: real work      873.183 s, elapsed      880.250 s
  Integrating overlap matrix.
  Time summed over all CPUs for integration: real work      610.940 s, elapsed      614.797 s
  Decreasing sparse matrix size:
   Tolerance:  9.999999824516700E-014
   Hamiltonian matrix
  | Array has 11292466 nonzero elements out of 12810990 elements
  | Sparsity factor is 0.119
   Overlap matrix
  | Array has 10535142 nonzero elements out of 12810990 elements
  | Sparsity factor is 0.178
  New size of hamiltonian matrix:    11295415

  Updating Kohn-Sham eigenvalues, eigenvectors, occupation numbers, and Fermi level.
  Solving generalized eigenproblem
  Transforming overlap matrix and checking for singularities.
  Overlap matrix is nonsingular at first k-point:
  | Lowest eigenvalue:  0.148655E-03
  Determining occupation numbers for Kohn-Sham eigenstates.
  | Chemical potential (Fermi level) in eV                 : -.40823610E+01
  | Error in electron count due to remaining E_F inaccuracy: 0.90949470E-12
  | Maximum occupation number of highest empty state:  0.00E+00

  Writing Kohn-Sham eigenvalues.
  K-point:       1 at    0.000000    0.000000    0.000000 (in units of recip. lattice)

  State    Occupation    Eigenvalue [Ha]    Eigenvalue [eV]
      1       2.00000       -3256.448416       -88612.46994
      2       2.00000       -3256.448416       -88612.46994
      3       2.00000       -3256.448416       -88612.46994
      4       2.00000       -3256.448415       -88612.46992
      5       2.00000       -3256.448411       -88612.46982
      6       2.00000       -3256.448411       -88612.46982
      7       2.00000       -3256.448411       -88612.46982
      8       2.00000       -3256.448411       -88612.46981
      9       2.00000       -3256.447762       -88612.45215
     10       2.00000       -3256.447761       -88612.45213
     11       2.00000       -3256.447134       -88612.43508
     12       2.00000       -3256.447134       -88612.43508
     13       2.00000       -3256.447129       -88612.43492
     14       2.00000       -3256.447128       -88612.43491
     15       2.00000       -3256.447026       -88612.43213
     16       2.00000       -3256.447026       -88612.43213
     17       2.00000       -3256.447026       -88612.43213
     18       2.00000       -3256.447026       -88612.43212
     19       2.00000       -3256.447022       -88612.43201
     20       2.00000       -3256.447022       -88612.43201
     21       2.00000       -3256.447022       -88612.43201
     22       2.00000       -3256.447021       -88612.43200
     23       2.00000       -3256.445579       -88612.39277
     24       2.00000       -3256.445579       -88612.39275
     25       2.00000       -3256.445578       -88612.39272
     26       2.00000       -3256.445577       -88612.39271
     27       2.00000       -3256.445577       -88612.39269
     28       2.00000       -3256.445577       -88612.39269
     29       2.00000       -3256.445577       -88612.39269
     30       2.00000       -3256.445577       -88612.39269
     31       2.00000       -3256.445572       -88612.39257
     32       2.00000       -3256.445572       -88612.39257
     33       2.00000       -3256.445572       -88612.39257
     34       2.00000       -3256.445572       -88612.39256
     35       2.00000       -3256.443595       -88612.33876
     36       2.00000       -3256.443594       -88612.33873
     37       2.00000       -3256.443589       -88612.33862
     38       2.00000       -3256.443589       -88612.33861
     39       2.00000        -533.669427       -14521.88398
     40       2.00000        -533.669427       -14521.88398
     41       2.00000        -533.669427       -14521.88398
     42       2.00000        -533.669426       -14521.88396
     43       2.00000        -533.669423       -14521.88386
     44       2.00000        -533.669423       -14521.88386
     45       2.00000        -533.669423       -14521.88386
     46       2.00000        -533.669422       -14521.88385
     47       2.00000        -533.668772       -14521.86616
     48       2.00000        -533.668772       -14521.86615
     49       2.00000        -533.668144       -14521.84905
     50       2.00000        -533.668144       -14521.84905
     51       2.00000        -533.668138       -14521.84889
     52       2.00000        -533.668138       -14521.84889
     53       2.00000        -533.668035       -14521.84610
     54       2.00000        -533.668035       -14521.84610
     55       2.00000        -533.668035       -14521.84610
     56       2.00000        -533.668035       -14521.84609
     57       2.00000        -533.668031       -14521.84598
     58       2.00000        -533.668031       -14521.84598
     59       2.00000        -533.668031       -14521.84597
     60       2.00000        -533.668030       -14521.84597
     61       2.00000        -533.666585       -14521.80663
     62       2.00000        -533.666584       -14521.80661
     63       2.00000        -533.666583       -14521.80658
     64       2.00000        -533.666582       -14521.80657
     65       2.00000        -533.666582       -14521.80654
     66       2.00000        -533.666581       -14521.80654
     67       2.00000        -533.666581       -14521.80654
     68       2.00000        -533.666581       -14521.80654
     69       2.00000        -533.666577       -14521.80643
     70       2.00000        -533.666577       -14521.80642
     71       2.00000        -533.666577       -14521.80642
     72       2.00000        -533.666577       -14521.80641
     73       2.00000        -533.664595       -14521.75249
     74       2.00000        -533.664594       -14521.75246
     75       2.00000        -533.664590       -14521.75235
     76       2.00000        -533.664589       -14521.75234
     77       2.00000        -460.398329       -12528.07596
     78       2.00000        -460.398329       -12528.07595
     79       2.00000        -460.398329       -12528.07595
     80       2.00000        -460.398328       -12528.07593
     81       2.00000        -460.398327       -12528.07590
     82       2.00000        -460.398327       -12528.07590
     83       2.00000        -460.398327       -12528.07590
     84       2.00000        -460.398326       -12528.07588
     85       2.00000        -460.398326       -12528.07587
     86       2.00000        -460.398326       -12528.07586
     87       2.00000        -460.398326       -12528.07586
     88       2.00000        -460.398325       -12528.07584
     89       2.00000        -460.398325       -12528.07584
     90       2.00000        -460.398325       -12528.07583
     91       2.00000        -460.398324       -12528.07583
     92       2.00000        -460.398324       -12528.07582
     93       2.00000        -460.398323       -12528.07578
     94       2.00000        -460.398323       -12528.07578
     95       2.00000        -460.398323       -12528.07578
     96       2.00000        -460.398322       -12528.07577
     97       2.00000        -460.398321       -12528.07575
     98       2.00000        -460.398321       -12528.07574
     99       2.00000        -460.398321       -12528.07574
    100       2.00000        -460.398321       -12528.07573
    101       2.00000        -460.397673       -12528.05810
    102       2.00000        -460.397673       -12528.05809
    103       2.00000        -460.397672       -12528.05809
    104       2.00000        -460.397672       -12528.05808
    105       2.00000        -460.397672       -12528.05808
    106       2.00000        -460.397672       -12528.05807
    107       2.00000        -460.397044       -12528.04100
    108       2.00000        -460.397044       -12528.04100
    109       2.00000        -460.397044       -12528.04099
    110       2.00000        -460.397044       -12528.04099
    111       2.00000        -460.397044       -12528.04098
    112       2.00000        -460.397044       -12528.04097
    113       2.00000        -460.397038       -12528.04084
    114       2.00000        -460.397038       -12528.04083
    115       2.00000        -460.397038       -12528.04083
    116       2.00000        -460.397038       -12528.04083
    117       2.00000        -460.397038       -12528.04082
    118       2.00000        -460.397038       -12528.04081
    119       2.00000        -460.396936       -12528.03806
    120       2.00000        -460.396936       -12528.03805
    121       2.00000        -460.396936       -12528.03805
    122       2.00000        -460.396936       -12528.03804
    123       2.00000        -460.396936       -12528.03804
    124       2.00000        -460.396936       -12528.03804
    125       2.00000        -460.396936       -12528.03804
    126       2.00000        -460.396935       -12528.03803
    127       2.00000        -460.396935       -12528.03801
    128       2.00000        -460.396935       -12528.03801
    129       2.00000        -460.396934       -12528.03801
    130       2.00000        -460.396934       -12528.03800
    131       2.00000        -460.396932       -12528.03794
    132       2.00000        -460.396932       -12528.03793
    133       2.00000        -460.396932       -12528.03793
    134       2.00000        -460.396931       -12528.03792
    135       2.00000        -460.396931       -12528.03792
    136       2.00000        -460.396931       -12528.03792
    137       2.00000        -460.396931       -12528.03792
    138       2.00000        -460.396931       -12528.03791
    139       2.00000        -460.396930       -12528.03789
    140       2.00000        -460.396930       -12528.03789
    141       2.00000        -460.396930       -12528.03789
    142       2.00000        -460.396930       -12528.03788
    143       2.00000        -460.395490       -12527.99869
    144       2.00000        -460.395489       -12527.99867
    145       2.00000        -460.395488       -12527.99864
    146       2.00000        -460.395487       -12527.99863
    147       2.00000        -460.395486       -12527.99859
    148       2.00000        -460.395486       -12527.99859
    149       2.00000        -460.395486       -12527.99858
    150       2.00000        -460.395486       -12527.99858
    151       2.00000        -460.395486       -12527.99858
    152       2.00000        -460.395486       -12527.99858
    153       2.00000        -460.395484       -12527.99855
    154       2.00000        -460.395484       -12527.99854
    155       2.00000        -460.395484       -12527.99853
    156       2.00000        -460.395484       -12527.99853
    157       2.00000        -460.395484       -12527.99853
    158       2.00000        -460.395483       -12527.99852
    159       2.00000        -460.395481       -12527.99847
    160       2.00000        -460.395481       -12527.99846
    161       2.00000        -460.395481       -12527.99846
    162       2.00000        -460.395481       -12527.99846
    163       2.00000        -460.395481       -12527.99846
    164       2.00000        -460.395481       -12527.99845
    165       2.00000        -460.395480       -12527.99842
    166       2.00000        -460.395479       -12527.99841
    167       2.00000        -460.395479       -12527.99841
    168       2.00000        -460.395479       -12527.99841
    169       2.00000        -460.395479       -12527.99840
    170       2.00000        -460.395479       -12527.99840
    171       2.00000        -460.395478       -12527.99839
    172       2.00000        -460.395478       -12527.99838
    173       2.00000        -460.395478       -12527.99838
    174       2.00000        -460.395478       -12527.99838
    175       2.00000        -460.395474       -12527.99827
    176       2.00000        -460.395474       -12527.99826
    177       2.00000        -460.395474       -12527.99826
    178       2.00000        -460.395474       -12527.99826
    179       2.00000        -460.393499       -12527.94451
    180       2.00000        -460.393498       -12527.94448
    181       2.00000        -460.393497       -12527.94446
    182       2.00000        -460.393496       -12527.94443
    183       2.00000        -460.393496       -12527.94443
    184       2.00000        -460.393494       -12527.94440
    185       2.00000        -460.393493       -12527.94437
    186       2.00000        -460.393493       -12527.94436
    187       2.00000        -460.393491       -12527.94431
    188       2.00000        -460.393491       -12527.94430
    189       2.00000        -460.393490       -12527.94428
    190       2.00000        -460.393490       -12527.94427
    191       2.00000        -328.709658        -8944.64488
    192       2.00000        -328.709658        -8944.64488
    193       2.00000        -328.708669        -8944.61799
    194       2.00000        -328.708669        -8944.61798
    195       2.00000        -328.708660        -8944.61774
    196       2.00000        -328.708660        -8944.61774
    197       2.00000        -328.708445        -8944.61188
    198       2.00000        -328.708445        -8944.61188
    199       2.00000        -328.708444        -8944.61185
    200       2.00000        -328.708443        -8944.61184
    201       2.00000        -328.708134        -8944.60341
    202       2.00000        -328.708133        -8944.60341
    203       2.00000        -328.708133        -8944.60340
    204       2.00000        -328.708133        -8944.60340
    205       2.00000        -124.246521        -3380.91986
    206       2.00000        -124.246521        -3380.91986
    207       2.00000        -124.246521        -3380.91986
    208       2.00000        -124.246520        -3380.91984
    209       2.00000        -124.246517        -3380.91974
    210       2.00000        -124.246517        -3380.91974
    211       2.00000        -124.246517        -3380.91974
    212       2.00000        -124.246516        -3380.91973
    213       2.00000        -124.245861        -3380.90190
    214       2.00000        -124.245861        -3380.90189
    215       2.00000        -124.245224        -3380.88457
    216       2.00000        -124.245224        -3380.88457
    217       2.00000        -124.245218        -3380.88441
    218       2.00000        -124.245218        -3380.88440
    219       2.00000        -124.245114        -3380.88157
    220       2.00000        -124.245114        -3380.88157
    221       2.00000        -124.245114        -3380.88157
    222       2.00000        -124.245114        -3380.88156
    223       2.00000        -124.245110        -3380.88145
    224       2.00000        -124.245110        -3380.88145
    225       2.00000        -124.245109        -3380.88145
    226       2.00000        -124.245109        -3380.88144
    227       2.00000        -124.243641        -3380.84148
    228       2.00000        -124.243640        -3380.84147
    229       2.00000        -124.243639        -3380.84144
    230       2.00000        -124.243639        -3380.84142
    231       2.00000        -124.243636        -3380.84135
    232       2.00000        -124.243636        -3380.84135
    233       2.00000        -124.243636        -3380.84135
    234       2.00000        -124.243636        -3380.84134
    235       2.00000        -124.243632        -3380.84123
[...]
  | Occupation number:      0.99756558
  | K-point:      30 at    0.250000    0.416667    0.000000 (in units of recip. lattice)

  Overall HOMO-LUMO gap:      0.00603921 eV between HOMO at k-point 3 and LUMO at k-point 30
  | This appears to be an indirect band gap.
  | Smallest direct gap :      0.01510006 eV for k_point 30 at    0.250000    0.416667    0.000000 (in units of recip. lattice)
  However, the gap value is rather small. Since we use a finite k-point grid,
  this material is most likely metallic (in the sense that there are states
  at or near the Fermi level). A DOS and/or band structure plot is required
  for an unambiguous distinction.

  Self-consistency cycle converged.

  End self-consistency iteration #    15       :  max(cpu_time)    wall_clock(cpu1)
  | Time for this iteration                    :     1727.183 s        1731.771 s
  | Charge density & force component update    :     1279.641 s        1283.019 s
  | Density mixing                             :        0.056 s           0.056 s
  | Hartree multipole update                   :        0.020 s           0.019 s
  | Hartree multipole summation                :       28.118 s          28.188 s
  | Integration                                :       54.344 s          54.490 s
  | Solution of K.-S. eqns.                    :      364.986 s         365.958 s
  | Total energy evaluation                    :        0.006 s           0.010 s
------------------------------------------------------------
 
  Energy and forces in a compact form:
  | Total energy uncorrected      :         -0.209882926779112E+08 eV
  | Total energy corrected        :         -0.209882927210388E+08 eV  <-- only rely on this value for actual (periodic) metals
  | Electronic free energy        :         -0.209882927641664E+08 eV
  Total atomic forces (unitary forces were cleaned, then relaxation constraints were applied) [eV/Ang]:
  |   1         -0.559450381864525E-03         -0.415383179310414E-03          0.884449003535914E-03
  |   2         -0.527205072237474E-03         -0.458831601560095E-03          0.920441253909318E-03
  |   3         -0.653287917485581E-03         -0.535707952692638E-03          0.388986590383869E-03
  |   4         -0.658896674087578E-03         -0.547235458448558E-03          0.396871906626930E-03
  |   5          0.593717513398746E-03          0.725224130614857E-03          0.131140226440519E-03
  |   6          0.511124027675030E-03          0.681720161966192E-03          0.103633797909916E-03
  |   7          0.762632336104399E-03          0.382324057354263E-03          0.114442251768375E-03
  |   8          0.785872330852750E-03          0.359051601321536E-03          0.136537402658260E-03
  |   9          0.188149031856559E-03          0.138908474912998E-03         -0.355173758141191E-03
  |  10          0.879485491882428E-04          0.154597251946832E-03         -0.341443496210119E-03
  |  11         -0.116388587779567E-03         -0.999826501794294E-04          0.142225930637519E-03
  |  12         -0.117420137648535E-03         -0.109530394589267E-03          0.143674638828780E-03
  |  13         -0.167975275456654E-02          0.654220498856485E-04         -0.330739588306138E-03
  |  14         -0.169279157731890E-02          0.101427766203556E-03         -0.301182510353770E-03
  |  15         -0.289840032570869E-03         -0.166239181511006E-02         -0.349537357376845E-03
  |  16         -0.295357404626737E-03         -0.173283371183782E-02         -0.317062470057793E-03
  |  17          0.000000000000000E+00          0.000000000000000E+00          0.000000000000000E+00
  |  18          0.000000000000000E+00          0.000000000000000E+00          0.000000000000000E+00
  |  19          0.000000000000000E+00          0.000000000000000E+00          0.000000000000000E+00
  |  20          0.000000000000000E+00          0.000000000000000E+00          0.000000000000000E+00
  |  21          0.000000000000000E+00          0.000000000000000E+00          0.000000000000000E+00
  |  22          0.000000000000000E+00          0.000000000000000E+00          0.000000000000000E+00
  |  23          0.000000000000000E+00          0.000000000000000E+00          0.000000000000000E+00
  |  24          0.000000000000000E+00          0.000000000000000E+00          0.000000000000000E+00
  |  25          0.000000000000000E+00          0.000000000000000E+00          0.000000000000000E+00
  |  26          0.000000000000000E+00          0.000000000000000E+00          0.000000000000000E+00
  |  27          0.000000000000000E+00          0.000000000000000E+00          0.000000000000000E+00
  |  28          0.000000000000000E+00          0.000000000000000E+00          0.000000000000000E+00
  |  29          0.000000000000000E+00          0.000000000000000E+00          0.000000000000000E+00
  |  30          0.000000000000000E+00          0.000000000000000E+00          0.000000000000000E+00
  |  31          0.000000000000000E+00          0.000000000000000E+00          0.000000000000000E+00
  |  32          0.000000000000000E+00          0.000000000000000E+00          0.000000000000000E+00
  |  33          0.000000000000000E+00          0.000000000000000E+00          0.000000000000000E+00
  |  34          0.000000000000000E+00          0.000000000000000E+00          0.000000000000000E+00
  |  35          0.000000000000000E+00          0.000000000000000E+00          0.000000000000000E+00
  |  36          0.000000000000000E+00          0.000000000000000E+00          0.000000000000000E+00
  |  37         -0.239030817104294E-03          0.115545919729585E-02         -0.621117542133053E-03
  |  38         -0.286136303019126E-03          0.118749230857458E-02         -0.514054975677485E-03
  |  39          0.105877137261314E-02         -0.474016138703116E-03         -0.490572901752840E-03
  |  40          0.113654439429571E-02         -0.547728625401517E-03         -0.507910353217605E-03
  |  41          0.291242765162803E-03          0.330545288716311E-03          0.616543819747984E-04
  |  42          0.300464710968099E-03          0.196642139199760E-03         -0.712023555312372E-04
  |  43          0.768828492218754E-04          0.414760691629013E-04         -0.170096113799720E-03
  |  44          0.747835772425923E-04          0.395064979992978E-04         -0.166368197070469E-03
  |  45         -0.470881231983736E-04         -0.828956742267851E-03         -0.217753128098937E-04
  |  46         -0.158637788325824E-03         -0.890766895289565E-03         -0.549797100323266E-03
  |  47         -0.898749374375960E-03          0.117411344597400E-03          0.251240413545962E-03
  |  48         -0.887920735124255E-03          0.138196325437830E-03          0.474991901532685E-04
  |  49          0.419157091720369E-03          0.324061305577338E-03          0.580548341512699E-03
  |  50          0.385284565937067E-03          0.280611243636055E-03          0.317112649302834E-03
  |  51          0.596756552014894E-03          0.513144511709872E-03         -0.523401789096521E-03
  |  52          0.613238677530194E-03          0.465449057643220E-03         -0.535136493243447E-03
 
  ------------------------------------ 
  Start decomposition of the XC Energy 
  ------------------------------------ 
  Hartree-Fock part   :          0.000000000 Ha              0.000000000 eV
  ------------------------------------ 
  X Energy            :     -14725.477897805 Ha        -400700.641023413 eV
  C Energy GGA        :       -204.378172880 Ha          -5561.413045647 eV
  Total XC Energy     :     -14929.856070685 Ha        -406262.054069059 eV
  LDA X and C from self-consistent density 
  X Energy LDA        :     -14120.520790250 Ha        -384238.920563750 eV
  C Energy LDA        :       -350.532603543 Ha          -9538.477454782 eV
  ------------------------------------ 
  End decomposition of the XC Energy 
  ------------------------------------ 
  Relaxation / MD: End force evaluation.       :  max(cpu_time)    wall_clock(cpu1)
  | Time for this force evaluation             :    10121.254 s       10157.817 s

------------------------------------------------------------
  Geometry optimization: Attempting to predict improved coordinates.

  Net remaining forces (excluding translations, rotations) in present geometry:
  Maximum force component is  0.173283E-02 eV/A.
  Present geometry is converged.

------------------------------------------------------------
  Final atomic structure:
                         x [A]             y [A]             z [A]
  lattice_vector         9.03328156        0.00000000        0.00000000
  lattice_vector         1.80734715        8.85056338        0.00000000
  lattice_vector         0.01463727        0.00675914       25.81424533

            atom         3.54670833        6.67348158        0.17369196  Au
            atom         7.15952531        2.24829648        0.17369388  Au
            atom         5.22634333        4.35744623        0.35586477  Cu
            atom         8.83932921       -0.06781577        0.35584867  Cu
            atom         4.39478441        1.85106496        0.85877625  Au
            atom         9.81522138        6.27640549        0.85877393  Au
            atom         2.60422270        4.04425918        0.85886767  Au
            atom         8.02460990        8.46959806        0.85885579  Au
            atom         1.71986833        1.49469037        1.46966876  Au
            atom         7.14029253        5.92000728        1.46968900  Au
            atom         5.40296299        8.18900452        1.69510437  Cu
            atom         9.01588931        3.76375494        1.69509997  Cu
            atom         4.52920076        5.64105169        2.58179191  Au
            atom         8.14213844        1.21578076        2.58177979  Au
            atom         2.73163431        7.84275309        2.58170372  Au
            atom         6.34455922        3.41748879        2.58172222  Au
            atom         1.81431084        5.25936393        3.36107565  Au
            atom         5.42727805        0.83408224        3.36107565  Au
            atom         3.62138949        3.04673507        3.36269778  Cu
            atom         9.04170385        7.47201676        3.36269778  Cu
            atom         2.71803205        0.46560957        4.18668188  Au
            atom         8.13834641        4.89089126        4.18668188  Au
            atom         0.91170321        2.67803627        4.18707600  Au
            atom         6.33201757        7.10331796        4.18707600  Au
            atom         5.42878567        4.52238025        5.01226276  Au
            atom         9.04175287        0.09709856        5.01226276  Au
            atom         3.62289711        6.73503307        5.01388489  Cu
            atom         7.23586432        2.30975138        5.01388489  Cu
            atom         2.71953968        4.15390757        5.83786899  Au
            atom         8.13985403        8.57918926        5.83786899  Au
            atom         4.52617804        1.94105259        5.83826311  Au
            atom         9.94649240        6.36633428        5.83826311  Au
            atom         5.43029329        8.21067825        6.66344987  Au
            atom         9.04326049        3.78539656        6.66344987  Au
            atom         1.81705758        1.57276770        6.66507200  Cu
            atom         7.23737194        5.99804939        6.66507200  Cu
            atom         2.71567148        7.82907677        7.44364741  Au
            atom         6.32860804        3.40377565        7.44367047  Au
            atom         4.51331486        5.62722126        7.44375142  Au
            atom         8.12621493        1.20197403        7.44380131  Au
            atom         3.71740060        3.12465719        8.55563058  Au
            atom         9.13782398        7.54998935        8.55566343  Au
            atom         1.84196486        5.28084147        8.32993459  Cu
            atom         5.45489792        0.85559223        8.32994756  Cu
            atom         1.04243581        2.76847661        9.16665326  Au
            atom         6.46287880        7.19382568        9.16664058  Au
            atom         2.83337393        0.57495557        9.16664440  Au
            atom         8.25377846        5.00030766        9.16668593  Au
            atom         3.69828719        6.79648228        9.85160828  Au
            atom         7.31113440        2.37131825        9.85168827  Au
            atom         5.63150023        4.68730011        9.66955702  Cu
            atom         9.24444120        0.26200943        9.66957735  Cu

  Fractional coordinates:
                         L1                L2                L3
       atom_frac         0.24175571        0.75401258        0.00672853  Au
       atom_frac         0.74173689        0.25402349        0.00672861  Au
       atom_frac         0.48004033        0.49232494        0.01378560  Cu
       atom_frac         0.98004196       -0.00767284        0.01378497  Cu
       atom_frac         0.44461616        0.20912116        0.03326753  Au
       atom_frac         0.94462840        0.70912781        0.03326744  Au
       atom_frac         0.19681834        0.45692394        0.03327107  Au
       atom_frac         0.69682512        0.95693040        0.03327061  Au
       atom_frac         0.15651979        0.16883734        0.05693247  Au
       atom_frac         0.65653115        0.66884132        0.05693325  Au
       atom_frac         0.41289981        0.92520220        0.06566546  Cu
       atom_frac         0.91289456        0.42520582        0.06566529  Cu
       atom_frac         0.37372161        0.63729002        0.10001423  Au
       atom_frac         0.87371810        0.13729123        0.10001376  Au
       atom_frac         0.12495606        0.88605400        0.10001082  Au
       atom_frac         0.62495098        0.38605597        0.10001153  Au
       atom_frac         0.08176273        0.59414115        0.13020236  Au
       atom_frac         0.58176273        0.09414115        0.13020236  Au
       atom_frac         0.33182824        0.34414245        0.13026520  Cu
       atom_frac         0.83182824        0.84414245        0.13026520  Cu
       atom_frac         0.29012726        0.05248404        0.16218494  Au
       atom_frac         0.79012726        0.55248404        0.16218494  Au
       atom_frac         0.04014921        0.30245983        0.16220021  Au
       atom_frac         0.54014921        0.80245983        0.16220021  Au
       atom_frac         0.49845782        0.51082261        0.19416654  Au
       atom_frac         0.99845782        0.01082261        0.19416654  Au
       atom_frac         0.24852333        0.76082391        0.19422938  Cu
       atom_frac         0.74852333        0.26082391        0.19422938  Cu
       atom_frac         0.20682235        0.46916550        0.22614912  Au
       atom_frac         0.70682235        0.96916550        0.22614912  Au
       atom_frac         0.45684430        0.21914129        0.22616439  Au
       atom_frac         0.95684430        0.71914129        0.22616439  Au
       atom_frac         0.41515291        0.92750406        0.25813073  Au
       atom_frac         0.91515291        0.42750406        0.25813073  Au
       atom_frac         0.16521842        0.17750537        0.25819356  Cu
       atom_frac         0.66521842        0.67750537        0.25819356  Cu
       atom_frac         0.12322170        0.88436492        0.28835425  Au
       atom_frac         0.62321875        0.38436272        0.28835515  Au
       atom_frac         0.37199926        0.63558352        0.28835828  Au
       atom_frac         0.87199104        0.13558741        0.28836021  Au
       atom_frac         0.34040009        0.35279302        0.33143059  Au
       atom_frac         0.84041102        0.85279872        0.33143186  Au
       atom_frac         0.08405606        0.59642083        0.32268751  Cu
       atom_frac         0.58405155        0.09642450        0.32268801  Cu
       atom_frac         0.05229394        0.31253111        0.35510057  Au
       atom_frac         0.55230666        0.81253873        0.35510008  Au
       atom_frac         0.30014081        0.06469141        0.35510023  Au
       atom_frac         0.80014919        0.56469936        0.35510184  Au
       atom_frac         0.25520498        0.76762376        0.38163456  Au
       atom_frac         0.75518904        0.26763705        0.38163766  Au
       atom_frac         0.51690571        0.52931865        0.37458221  Cu
       atom_frac         1.01690301        0.02931763        0.37458300  Cu
------------------------------------------------------------

------------------------------------------------------------------------------
  Final output of selected total energy values:

  The following output summarizes some interesting total energy values
  at the end of a run (AFTER all relaxation, molecular dynamics, etc.).

  | Total energy of the DFT / Hartree-Fock s.c.f. calculation      :      -20988292.677911218 eV
  | Final zero-broadening corrected energy (caution - metals only) :      -20988292.721038785 eV
  | For reference only, the value of 1 Hartree used in FHI-aims is :             27.211384500 eV

  Before relying on these values, please be sure to understand exactly which
  total energy value is referred to by a given number. Different objects may
  all carry the same name 'total energy'. Definitions:

  Total energy of the DFT / Hartree-Fock s.c.f. calculation:
  | Note that this energy does not include ANY quantities calculated after the
  | s.c.f. cycle, in particular not ANY RPA, MP2, etc. many-body perturbation terms.

  Final zero-broadening corrected energy:
  | For metallic systems only, a broadening of the occupation numbers at the Fermi
  | level can be extrapolated back to zero broadening by an electron-gas inspired
  | formula. For all systems that are not real metals, this value can be
  | meaningless and should be avoided.

------------------------------------------------------------------------------

------------------------------------------------------------
          Leaving FHI-aims.
          Date     :  20130529, Time     :  223339.975

          Computational steps:
          | Number of self-consistency cycles          :           65
          | Number of relaxation steps                 :            2

          Detailed time accounting                     :  max(cpu_time)    wall_clock(cpu1)
          | Total time                                 :    43520.221 s       43636.830 s
          | Preparation time                           :        0.858 s           0.857 s
          | Grid partitioning                          :       15.887 s          15.922 s
          | Preloading free-atom quantities on grid    :       16.906 s          16.946 s
          | Free-atom superposition energy             :        2.451 s           2.456 s
          | Total time for integrations                :     3712.776 s        3722.753 s
          | Total time for solution of K.-S. equations :    25172.848 s       25240.124 s
          | Total time for EV reorthonormalization     :      270.148 s         217.471 s
          | Total time for density & force components  :    13373.105 s       13408.458 s
          | Total time for mixing & preconditioning    :      177.300 s         177.893 s
          | Total time for Hartree multipole update    :        1.303 s           1.264 s
          | Total time for Hartree multipole sum       :      761.318 s         763.214 s
          | Total time for total energy evaluation     :        0.277 s           0.302 s
          | Total time for scaled ZORA corrections     :        0.000 s           0.000 s

          Have a nice day.
------------------------------------------------------------
