  MPI-parallelism will be employed.
------------------------------------------------------------
          Invoking FHI-aims ...
          Version 081912
          Compiled on 2013/06/21 at 19:45:33 on host edison04.

          When using FHI-aims, please cite the following reference:

          Volker Blum, Ralf Gehrke, Felix Hanke, Paula Havu,
          Ville Havu, Xinguo Ren, Karsten Reuter, and Matthias Scheffler,
          'Ab Initio Molecular Simulations with Numeric Atom-Centered Orbitals: FHI-aims',
          Computer Physics Communications 180, 2175-2196 (2009)

------------------------------------------------------------

  Date     :  20131118, Time     :  122516.098
  Time zero on CPU 1             :   0.424025000000000E+00  s.
  Internal wall clock time zero  :           154009516.098  s.

  Using      144 parallel tasks.
  Task        0 on host nid00158 reporting.
  Task        1 on host nid00158 reporting.
  Task        2 on host nid00158 reporting.
  Task        3 on host nid00158 reporting.
  Task        4 on host nid00158 reporting.
  Task        5 on host nid00158 reporting.
  Task        6 on host nid00158 reporting.
  Task        7 on host nid00158 reporting.
  Task        8 on host nid00158 reporting.
  Task        9 on host nid00158 reporting.
  Task       10 on host nid00158 reporting.
  Task       11 on host nid00158 reporting.
  Task       12 on host nid00158 reporting.
  Task       13 on host nid00158 reporting.
  Task       14 on host nid00158 reporting.
  Task       15 on host nid00158 reporting.
  Task       16 on host nid00158 reporting.
  Task       17 on host nid00158 reporting.
  Task       18 on host nid00158 reporting.
  Task       19 on host nid00158 reporting.
  Task       20 on host nid00158 reporting.
  Task       21 on host nid00158 reporting.
  Task       22 on host nid00158 reporting.
  Task       23 on host nid00158 reporting.
  Task       24 on host nid00159 reporting.
  Task       25 on host nid00159 reporting.
  Task       26 on host nid00159 reporting.
  Task       27 on host nid00159 reporting.
  Task       28 on host nid00159 reporting.
  Task       29 on host nid00159 reporting.
  Task       30 on host nid00159 reporting.
  Task       31 on host nid00159 reporting.
  Task       32 on host nid00159 reporting.
  Task       33 on host nid00159 reporting.
  Task       34 on host nid00159 reporting.
  Task       35 on host nid00159 reporting.
  Task       36 on host nid00159 reporting.
  Task       37 on host nid00159 reporting.
  Task       38 on host nid00159 reporting.
  Task       39 on host nid00159 reporting.
  Task       40 on host nid00159 reporting.
  Task       41 on host nid00159 reporting.
  Task       42 on host nid00159 reporting.
  Task       43 on host nid00159 reporting.
  Task       44 on host nid00159 reporting.
  Task       45 on host nid00159 reporting.
  Task       46 on host nid00159 reporting.
  Task       47 on host nid00159 reporting.
  Task       48 on host nid00160 reporting.
  Task       49 on host nid00160 reporting.
  Task       50 on host nid00160 reporting.
  Task       51 on host nid00160 reporting.
  Task       52 on host nid00160 reporting.
  Task       53 on host nid00160 reporting.
  Task       54 on host nid00160 reporting.
  Task       55 on host nid00160 reporting.
  Task       56 on host nid00160 reporting.
  Task       57 on host nid00160 reporting.
  Task       58 on host nid00160 reporting.
  Task       59 on host nid00160 reporting.
  Task       60 on host nid00160 reporting.
  Task       61 on host nid00160 reporting.
  Task       62 on host nid00160 reporting.
  Task       63 on host nid00160 reporting.
  Task       64 on host nid00160 reporting.
  Task       65 on host nid00160 reporting.
  Task       66 on host nid00160 reporting.
  Task       67 on host nid00160 reporting.
  Task       68 on host nid00160 reporting.
  Task       69 on host nid00160 reporting.
  Task       70 on host nid00160 reporting.
  Task       71 on host nid00160 reporting.
  Task       72 on host nid00161 reporting.
  Task       73 on host nid00161 reporting.
  Task       74 on host nid00161 reporting.
  Task       75 on host nid00161 reporting.
  Task       76 on host nid00161 reporting.
  Task       77 on host nid00161 reporting.
  Task       78 on host nid00161 reporting.
  Task       79 on host nid00161 reporting.
  Task       80 on host nid00161 reporting.
  Task       81 on host nid00161 reporting.
  Task       82 on host nid00161 reporting.
  Task       83 on host nid00161 reporting.
  Task       84 on host nid00161 reporting.
  Task       85 on host nid00161 reporting.
  Task       86 on host nid00161 reporting.
  Task       87 on host nid00161 reporting.
  Task       88 on host nid00161 reporting.
  Task       89 on host nid00161 reporting.
  Task       90 on host nid00161 reporting.
  Task       91 on host nid00161 reporting.
  Task       92 on host nid00161 reporting.
  Task       93 on host nid00161 reporting.
  Task       94 on host nid00161 reporting.
  Task       95 on host nid00161 reporting.
  Task       96 on host nid00162 reporting.
  Task       97 on host nid00162 reporting.
  Task       98 on host nid00162 reporting.
  Task       99 on host nid00162 reporting.
  Task      100 on host nid00162 reporting.
  Task      101 on host nid00162 reporting.
  Task      102 on host nid00162 reporting.
  Task      103 on host nid00162 reporting.
  Task      104 on host nid00162 reporting.
  Task      105 on host nid00162 reporting.
  Task      106 on host nid00162 reporting.
  Task      107 on host nid00162 reporting.
  Task      108 on host nid00162 reporting.
  Task      109 on host nid00162 reporting.
  Task      110 on host nid00162 reporting.
  Task      111 on host nid00162 reporting.
  Task      112 on host nid00162 reporting.
  Task      113 on host nid00162 reporting.
  Task      114 on host nid00162 reporting.
  Task      115 on host nid00162 reporting.
  Task      116 on host nid00162 reporting.
  Task      117 on host nid00162 reporting.
  Task      118 on host nid00162 reporting.
  Task      119 on host nid00162 reporting.
  Task      120 on host nid00163 reporting.
  Task      121 on host nid00163 reporting.
  Task      122 on host nid00163 reporting.
  Task      123 on host nid00163 reporting.
  Task      124 on host nid00163 reporting.
  Task      125 on host nid00163 reporting.
  Task      126 on host nid00163 reporting.
  Task      127 on host nid00163 reporting.
  Task      128 on host nid00163 reporting.
  Task      129 on host nid00163 reporting.
  Task      130 on host nid00163 reporting.
  Task      131 on host nid00163 reporting.
  Task      132 on host nid00163 reporting.
  Task      133 on host nid00163 reporting.
  Task      134 on host nid00163 reporting.
  Task      135 on host nid00163 reporting.
  Task      136 on host nid00163 reporting.
  Task      137 on host nid00163 reporting.
  Task      138 on host nid00163 reporting.
  Task      139 on host nid00163 reporting.
  Task      140 on host nid00163 reporting.
  Task      141 on host nid00163 reporting.
  Task      142 on host nid00163 reporting.
  Task      143 on host nid00163 reporting.

  Performing system and environment tests:
  | Environment variable OMP_NUM_THREADS correctly set to 1.
  | Checking for scalapack...
  | Testing pdtran()...
  | All pdtran() tests passed.

  Obtaining array dimensions for all initial allocations:

  -----------------------------------------------------------------------
  Parsing control.in (first pass over file, find array dimensions only).
  The contents of control.in will be repeated verbatim below
  unless switched off by setting 'verbatim_writeout .false.' .
  in the first line of control.in .
  -----------------------------------------------------------------------

  #########################################################################################
  #
  #  Volker Blum, FHI 2010 : Input file for FHI-aims
  #
  #  Input file control.in : All computational details for ZnO wurtzite
  #
  #########################################################################################
    #
    #  Physical model settings
    #
      xc               pbe
      charge           0.
      spin             none
      relativistic     atomic_zora scalar
    #
    #  SCF convergence settings
    #
      occupation_type  gaussian 0.1
      mixer            pulay
      n_max_pulay             10
      charge_mix_param        0.1
        # ini_linear_mixing     10
        # ini_linear_mix_param  0.05
        # preconditioner kerker 1.5
        # precondition_max_l    0
        # preconditioner turnoff charge 1e-4
        # preconditioner turnoff sum_ev 1e-1
      sc_accuracy_rho  1E-5
      sc_accuracy_eev  1E-3
      sc_accuracy_etot 1E-6
      sc_iter_limit    3000
    #
      KS_method          scalapack_fast
    #
    #  For periodic boundary conditions
    #
    #  k_grid 6 6 1
    #
    #  For relaxation:
    #
      relax_geometry bfgs 5.e-3
    # relax_unit_cell full
      sc_accuracy_forces  5E-4
    #
      output hirshfeld
      vdw_correction_hirshfeld
    # restart aims.restart
    #  Output options (examples):
    #
    #  Density of states. The DOS is here evaluated
    #  with an effective 144x144x144 k-point grid.
    #  (12 for each k-space direction in s.c.f., and then denser
    #  by another factor of 12 during post-processing). Check whether the
    #  the DOS is smooth, however - fcc Al may need significantly
    #  more k-points (van Hove singularities in DOS).
    #
    #  The dense dos_kgrid_factors below will take a noticeable amount
    #  of time, but they do lead to a smooth DOS.
    #
    #  output dos -20 10 1000 0.05
    #  dos_kgrid_factors  12 12 1
    #
    #  angular momentum channel resolved density of states
    #
    #  output atom_proj_dos -20 10 1000 0.05
    #
    #  High-symmetry k-points for fcc band structure output, if requested.
    #
    #  output band  0.25  0.50  0.75  0.5   0.5   0.5   40	W      L
    #  output band  0.5   0.5   0.5   0.25  0.25  0.25  40	L      Lambda
    #  output band  0.25  0.25  0.25  0     0     0     40	Lambda Gamma
    #  output band  0     0       0   0.00  0.25  0.25  40	Gamma  Delta
    #  output band  0.00  0.25  0.25  0     0.5   0.5   40	Delta  X
    #  output band  0     0.5   0.5   0.125 0.5   0.625 40	X      Z
    #  output band  0.125 0.5   0.625 0.25  0.50  0.75  40	Z      W
    #  output band  0.25  0.50  0.75  0.375 0.375 0.75  40	W      K

  ################################################################################
  #
  #  FHI-aims code project
  # Volker Blum, Fritz Haber Institute Berlin, 2009
  #
  #  Suggested "tight" defaults for H atom (to be pasted into control.in file)
  #
  ################################################################################
    species        H
  #     global species definitions
      nucleus             1
      mass                1.00794
  #
      l_hartree           6
  #
      cut_pot             4.0  2.0  1.0
      basis_dep_cutoff    1e-4
  #
      radial_base         24 7.0
      radial_multiplier   2
      angular_grids       specified
        division   0.1930   50
        division   0.3175  110
        division   0.4293  194
        division   0.5066  302
        division   0.5626  434
  #      division   0.5922  590
  #      division   0.6227  974
  #      division   0.6868 1202
  #      outer_grid  770
        outer_grid  434
  ################################################################################
  #
  #  Definition of "minimal" basis
  #
  ################################################################################
  #     valence basis states
      valence      1  s   1.
  #     ion occupancy
      ion_occ      1  s   0.5
  ################################################################################
  #
  #  Suggested additional basis functions. For production calculations,
  #  uncomment them one after another (the most important basis functions are
  #  listed first).
  #
  #  Basis constructed for dimers: 0.5 A, 0.7 A, 1.0 A, 1.5 A, 2.5 A
  #
  ################################################################################
  #  "First tier" - improvements: -1014.90 meV to -62.69 meV
       hydro 2 s 2.1
       hydro 2 p 3.5
  #  "Second tier" - improvements: -12.89 meV to -1.83 meV
       hydro 1 s 0.85
       hydro 2 p 3.7
       hydro 2 s 1.2
       hydro 3 d 7
  #  "Third tier" - improvements: -0.25 meV to -0.12 meV
  #     hydro 4 f 11.2
  #     hydro 3 p 4.8
  #     hydro 4 d 9
  #     hydro 3 s 3.2
  ################################################################################
  #
  #  FHI-aims code project
  # Volker Blum, Fritz Haber Institute Berlin, 2009
  #
  #  Suggested "tight" defaults for C atom (to be pasted into control.in file)
  #
  ################################################################################
    species        C
  #     global species definitions
      nucleus             6
      mass                12.0107
  #
      l_hartree           6
  #
      cut_pot             4.0  2.0  1.0
      basis_dep_cutoff    1e-4
  #
      radial_base         34 7.0
      radial_multiplier   2
      angular_grids specified
        division   0.2187   50
        division   0.4416  110
        division   0.6335  194
        division   0.7727  302
        division   0.8772  434
  #      division   0.9334  590
  #      division   0.9924  770
  #      division   1.0230  974
  #      division   1.5020 1202
  #     outer_grid  974
        outer_grid  434
  ################################################################################
  #
  #  Definition of "minimal" basis
  #
  ################################################################################
  #     valence basis states
      valence      2  s   2.
      valence      2  p   2.
  #     ion occupancy
      ion_occ      2  s   1.
      ion_occ      2  p   1.
  ################################################################################
  #
  #  Suggested additional basis functions. For production calculations,
  #  uncomment them one after another (the most important basis functions are
  #  listed first).
  #
  #  Constructed for dimers: 1.0 A, 1.25 A, 1.5 A, 2.0 A, 3.0 A
  #
  ################################################################################
  #  "First tier" - improvements: -1214.57 meV to -155.61 meV
       hydro 2 p 1.7
       hydro 3 d 6
       hydro 2 s 4.9
  #  "Second tier" - improvements: -67.75 meV to -5.23 meV
       hydro 4 f 9.8
       hydro 3 p 5.2
       hydro 3 s 4.3
       hydro 5 g 14.4
       hydro 3 d 6.2
  #  "Third tier" - improvements: -2.43 meV to -0.60 meV
  #     hydro 2 p 5.6
  #     hydro 2 s 1.4
  #     hydro 3 d 4.9
  #     hydro 4 f 11.2
  #  "Fourth tier" - improvements: -0.39 meV to -0.18 meV
  #     hydro 2 p 2.1
  #     hydro 5 g 16.4
  #     hydro 4 d 13.2
  #     hydro 3 s 13.6
  #     hydro 4 f 17.6
  #  Further basis functions - improvements: -0.08 meV and below
  #     hydro 3 s 2
  #     hydro 3 p 6
  #     hydro 4 d 20
  ################################################################################
  #
  #  FHI-aims code project
  # Volker Blum, Fritz Haber Institute Berlin, 2009
  #
  #  Suggested "tight" defaults for O atom (to be pasted into control.in file)
  #
  ################################################################################
    species        O
  #     global species definitions
      nucleus             8
      mass                15.9994
  #
      l_hartree           6
  #
      cut_pot             4.0  2.0  1.0
      basis_dep_cutoff    1e-4
  #
      radial_base         36 7.0
      radial_multiplier   2
       angular_grids specified
        division   0.1817   50
        division   0.3417  110
        division   0.4949  194
        division   0.6251  302
        division   0.8014  434
  #      division   0.8507  590
  #      division   0.8762  770
  #      division   0.9023  974
  #      division   1.2339 1202
  #      outer_grid 974
        outer_grid  434
  ################################################################################
  #
  #  Definition of "minimal" basis
  #
  ################################################################################
  #     valence basis states
      valence      2  s   2.
      valence      2  p   4.
  #     ion occupancy
      ion_occ      2  s   1.
      ion_occ      2  p   3.
  ################################################################################
  #
  #  Suggested additional basis functions. For production calculations,
  #  uncomment them one after another (the most important basis functions are
  #  listed first).
  #
  #  Constructed for dimers: 1.0 A, 1.208 A, 1.5 A, 2.0 A, 3.0 A
  #
  ################################################################################
  #  "First tier" - improvements: -699.05 meV to -159.38 meV
       hydro 2 p 1.8
       hydro 3 d 7.6
       hydro 3 s 6.4
  #  "Second tier" - improvements: -49.91 meV to -5.39 meV
       hydro 4 f 11.6
       hydro 3 p 6.2
       hydro 3 d 5.6
       hydro 5 g 17.6
       hydro 1 s 0.75
  #  "Third tier" - improvements: -2.83 meV to -0.50 meV
  #     ionic 2 p auto
  #     hydro 4 f 10.8
  #     hydro 4 d 4.7
  #     hydro 2 s 6.8
  #  "Fourth tier" - improvements: -0.40 meV to -0.12 meV
  #     hydro 3 p 5
  #     hydro 3 s 3.3
  #     hydro 5 g 15.6
  #     hydro 4 f 17.6
  #     hydro 4 d 14
  # Further basis functions - -0.08 meV and below
  #     hydro 3 s 2.1
  #     hydro 4 d 11.6
  #     hydro 3 p 16
  #     hydro 2 s 17.2
  ################################################################################
  #
  #  FHI-aims code project
  # Volker Blum, Fritz Haber Institute Berlin, 2010
  #
  #  Suggested "tight" defaults for Cu atom (to be pasted into control.in file)
  #
  ################################################################################
    species        Cu
  #
      nucleus      29
      mass         63.546
  #
      l_hartree    6
  #
      cut_pot      4.0  2.0  1.0
      basis_dep_cutoff    1e-4
  #
      radial_base        53 7.0
      radial_multiplier  2
      angular_grids       specified
        division   0.3478   50
        division   0.6638  110
        division   0.9718  194
        division   1.1992  302
        division   1.5920  434
  #      division   1.8557  590
  #      division   2.0466  770
  #      division   2.0877  974
  #      division   2.4589 1202
        outer_grid   434
  ################################################################################
  #
  #  Definition of "minimal" basis
  #
  ################################################################################
  #     valence basis states
      valence      4  s   1.
      valence      3  p   6.
      valence      3  d  10.
  #     ion occupancy
      ion_occ      4  s   0.
      ion_occ      3  p   6.
      ion_occ      3  d   9.
  ################################################################################
  #
  #  Suggested additional basis functions. For production calculations,
  #  uncomment them one after another (the most important basis functions are
  #  listed first).
  #
  #  Constructed for dimers: 1.8, 2.2, 3.0, 4.0 Ang
  #
  ################################################################################
  #  "First tier" - improvements: -211.42 meV to -9.17 meV
       ionic 4 p auto
       hydro 4 f 7.4
       hydro 3 s 2.6
       hydro 3 d 5
       hydro 5 g 10.4
  #  "Second tier" - improvements: -2.49 meV to -1.08 meV
  #     hydro 4 p 5.8
  #     hydro 3 d 2.7
  #     hydro 6 h 15.2
  #     hydro 5 s 10.8
  #     hydro 4 f 16
  #  "Third tier" - improvements: -0.50 meV to -0.21 meV
  #     hydro 4 d 6
  #     hydro 3 p 2.4
  #     hydro 4 f 6.4
  #     hydro 3 s 6.8
  #     hydro 5 g 11.2
  #  "Fourth tier" - improvements: -0.13 meV to -0.05 meV
  #     hydro 4 p 7
  #     hydro 4 s 4
  #     hydro 6 h 14
  #     hydro 4 d 8.6
  #     hydro 5 f 15.2

  ################################################################################
  #
  #  FHI-aims code project
  # Volker Blum, Fritz Haber Institute Berlin, 2009
  #
  #  Suggested "tight" defaults for Au atom (to be pasted into control.in file)
  #
  ################################################################################
    species        Au
  #     global species definitions
      nucleus             79
      mass                196.966569
  #
      l_hartree           6
  #
      cut_pot             4.0  2.0  1.0
      basis_dep_cutoff    1e-4
  #
      radial_base         73 7.0
      radial_multiplier   2
      angular_grids specified
        division   0.3416   50
        division   0.7206  110
        division   1.1171  194
        division   1.2821  302
        division   1.5560  434
  #      division   2.1046  590
  #      division   2.2363  770
  #      division   2.2710  974
  #      division   2.8078 1202
  #      outer_grid 1202
        outer_grid  434
   ################################################################################
  #
  #  Definition of "minimal" basis
  #
  ################################################################################
  #     valence basis states
      valence      6  s   1.
      valence      5  p   6.
      valence      5  d  10.
      valence      4  f  14.
  #     ion occupancy
      ion_occ     6  s   0.
      ion_occ     5  p   6.
      ion_occ     5  d   9.
      ion_occ     4  f   14.
  ################################################################################
  #
  #  Suggested additional basis functions. For production calculations,
  #  uncomment them one after another (the most important basis functions are
  #  listed first).
  #
  #  Constructed for dimers: 2.10, 2.45, 3.00, 4.00 AA
  #
  ################################################################################
  #  "First tier" - max. impr. -161.60  meV, min. impr. -4.53 meV
       ionic 6 p auto
       hydro 4 f 7.4
       ionic 6 s auto
       hydro 5 g 10
       hydro 6 h 12.8
       hydro 3 d 2.5
  #  "Second tier" - max. impr. -2.46  meV, min. impr. -0.28 meV
  #     hydro 5 f 14.8
  #     hydro 4 d 3.9
  #     hydro 3 p 3.3
  #     hydro 1 s 0.45
  #     hydro 5 g 16.4
  #     hydro 6 h 13.6
  #  "Third tier" - max. impr. -0.49  meV, min. impr. -0.09 meV
  #     hydro 4 f 5.2
  #     hydro 4 d 5
  #     hydro 5 g 8
  #     hydro 5 p 8.2
  #     hydro 6 d 12.4
  #     hydro 6 s 14.8
  #  Further basis functions: -0.08 meV and below
  #     hydro 5 f 18.8
  #     hydro 5 g 20
  #    hydro 5 g 15.2

  -----------------------------------------------------------------------
  Completed first pass over input file control.in .
  -----------------------------------------------------------------------


  -----------------------------------------------------------------------
  Parsing geometry.in (first pass over file, find array dimensions only).
  The contents of geometry.in will be repeated verbatim below
  unless switched off by setting 'verbatim_writeout .false.' .
  in the first line of geometry.in .
  -----------------------------------------------------------------------

              atom        -0.04188019        3.46178746        2.35622293  Au
              atom         1.23227851        8.57402733        3.96455861  Au
              atom        -0.00386405        4.73414250        7.71575815  Au
              atom         2.11003469       -0.05734252        6.00742778  Au
              atom         4.11009325        6.15579311       -0.06226702  Au
              atom         4.65257212        0.82126317        1.20018067  Au
              atom         4.17145126        8.21456635        8.60978325  Au
              atom         6.71398596        9.09317571        3.80252757  Au
              atom         7.59174622        0.46180583        5.84540780  Au
              atom         4.71393223        2.88003194        9.87222599  Au
              atom         8.82788732        4.30168477        2.09420723  Au
              atom         8.86589864        5.57404713        7.45373319  Au
              atom         0.49211853        6.05835217        3.11327195  Au
              atom         0.94297500        1.62608776        4.16227733  Au
              atom         2.24866291        2.07732033        1.69382438  Au
              atom         1.97004840        4.81671519        1.04534692  Au
              atom        -0.14255874        4.08663203        5.03960162  Au
              atom         4.38057020        3.46080281        0.45185978  Au
              atom         0.96234298        2.27947880        6.91447135  Au
              atom         6.16838681        0.53687566        3.48546499  Au
              atom         0.51164425        6.71172534        5.86544680  Au
              atom         5.43902507        7.70841400        1.78819420  Au
              atom         2.02094452        6.52710756        8.25080932  Au
              atom         2.29944449        3.78793357        8.89910436  Au
              atom         4.86274081        0.08563578        5.95403995  Au
              atom         3.96123664        8.95019527        3.85593938  Au
              atom         6.52454799        5.24792901        0.91084703  Au
              atom         2.62422767        7.44186555        1.87120420  Au
              atom         6.80305827        2.50868774        1.55916174  Au
              atom         3.35347441        0.27035491        3.56863373  Au
              atom         3.38499652        1.32738968        8.02173774  Au
              atom         2.65562424        8.49896785        6.32444952  Au
              atom         8.96656699        4.94919379        4.77034461  Au
              atom         5.47051973        8.76547686        6.24131308  Au
              atom         6.19976850        1.59395850        7.93874531  Au
              atom         6.85395663        4.21910440        8.76461022  Au
              atom         6.57534109        6.95851421        8.11612893  Au
              atom         8.31235490        2.32410048        3.94449575  Au
              atom         7.86165460        6.75635141        2.89547059  Au
              atom         4.44342257        5.57503068        9.35808971  Au
              atom         7.88103246        7.40974371        5.64767557  Au
              atom         8.33188621        2.97746443        6.69667871  Au
              atom         4.41200205        4.51791389        4.90497561  Cu
              atom         2.29841014        4.01669843        3.69544421  Cu
              atom         2.90300177        6.44279420        4.45865054  Cu
              atom         3.31959293        2.34666834        5.42816591  Cu
              atom         2.31642136        4.62053182        6.23891733  Cu
              atom         4.52614885        2.76366229        3.14685462  Cu
              atom         4.26875294        5.29522374        2.54769032  Cu
              atom         6.52559522        5.01912857        6.11450789  Cu
              atom         5.92099994        2.59302887        5.35129835  Cu
              atom         5.50440876        6.68916214        4.38178277  Cu
              atom         4.29785107        6.27216792        6.66309599  Cu
              atom         6.50758166        4.41529567        3.57103020  Cu
              atom         4.55524766        3.74060288        7.26226232  Cu
  atom       3.881270000000      10.449400000000       2.701980000000 O
  atom       4.851270000000      10.449400000000       2.701980000000 H
  atom       3.557940000000      11.090390000000       2.049690000000 H

  -----------------------------------------------------------------------
  Completed first pass over input file geometry.in .
  -----------------------------------------------------------------------


  Basic array size parameters:
  | Number of species                 :        5
  | Number of atoms                   :       58
  | Max. basis fn. angular momentum   :        5
  | Max. atomic/ionic basis occupied n:        6
  | Max. number of basis fn. types    :        3
  | Max. radial fns per species/type  :       14
  | Max. logarithmic grid size        :     1488
  | Max. radial integration grid size :      147
  | Max. angular integration grid size:      434
  | Max. angular grid division number :        8
  | Radial grid for Hartree potential :     1488
  | Number of spin channels           :        1

------------------------------------------------------------
          Reading file control.in.
------------------------------------------------------------
  XC: Using PBE gradient-corrected functionals.
  Charge =   0.000000E+00: Neutral system requested explicitly.
  Spin treatment: No spin polarisation.
  Scalar relativistic treatment of kinetic energy: on-site free-atom approximation to ZORA.
  Occupation type: Gaussian broadening, width =   0.100000E+00 eV.
  Using pulay charge density mixing.
  Pulay mixing - number of memorized iterations:   10
  Charge density mixing - mixing parameter:     0.1000
  Convergence accuracy of self-consistent charge density: 0.1000E-04
  Convergence accuracy of sum of eigenvalues: 0.1000E-02
  Convergence accuracy of total energy: 0.1000E-05
  Maximum number of s.-c. iterations  :  3000
  Kohn-Sham eigenvalues and eigenfunctions calculated by the ELPA eigensolver library.
  Geometry relaxation: Modified BFGS - TRM (trust radius method, i.e., trusted quadratic extrapolation).
  Convergence accuracy for geometry relaxation: Maximum force <   0.500000E-02 eV/A.
  Convergence accuracy of forces: 0.5000E-03
  Hirshfeld charge analysis will be performed.
  Using non-empirical van der Waals correction (Hirshfeld partitioning):

  Reading configuration options for species H                   .
  | Found nuclear charge :   1.0000
  | Found atomic mass :    1.00794000000000      amu
  | Found l_max for Hartree potential  :   6
  | Found cutoff potl. onset [A], width [A], scale factor :    4.00000    2.00000    1.00000
  | Threshold for basis-dependent cutoff potential is   0.100000E-03
  | Found data for basic radial integration grid :    24 points, outermost radius =    7.000 A
  | Found multiplier for basic radial grid :   2
  | Found angular grid specification: user-specified.
  | Specified grid contains     6 separate shells.
  | Check grid settings after all constraints further below.
  | Found free-atom valence shell :  1 s   1.000
  | Found free-ion valence shell :  1 s   0.500
  | Found hydrogenic basis function :  2 s   2.100
  | Found hydrogenic basis function :  2 p   3.500
  | Found hydrogenic basis function :  1 s   0.850
  | Found hydrogenic basis function :  2 p   3.700
  | Found hydrogenic basis function :  2 s   1.200
  | Found hydrogenic basis function :  3 d   7.000
  Species H                   : Missing cutoff potential type.
  Defaulting to exp(1/x)/(1-x)^2 type cutoff potential.
  Species H : No 'logarithmic' tag. Using default grid for free atom:
  | Default logarithmic grid data [bohr] : 0.1000E-03 0.1000E+03 0.1012E+01
  Species H : On-site basis accuracy parameter (for Gram-Schmidt orthonormalisation) not specified.
  Using default value basis_acc =  0.1000000E-03.
  Species H                   : Using default innermost maximum threshold i_radial=  2 for radial functions.
  Species H                   : Default cutoff onset for free atom density etc. : 0.40000000E+01 AA.
  Species H                   : Basic radial grid will be enhanced according to radial_multiplier =   2, to contain    49 grid points.

  Reading configuration options for species C                   .
  | Found nuclear charge :   6.0000
  | Found atomic mass :    12.0107000000000      amu
  | Found l_max for Hartree potential  :   6
  | Found cutoff potl. onset [A], width [A], scale factor :    4.00000    2.00000    1.00000
  | Threshold for basis-dependent cutoff potential is   0.100000E-03
  | Found data for basic radial integration grid :    34 points, outermost radius =    7.000 A
  | Found multiplier for basic radial grid :   2
  | Found angular grid specification: user-specified.
  | Specified grid contains     6 separate shells.
  | Check grid settings after all constraints further below.
  | Found free-atom valence shell :  2 s   2.000
  | Found free-atom valence shell :  2 p   2.000
  | Found free-ion valence shell :  2 s   1.000
  | Found free-ion valence shell :  2 p   1.000
  | Found hydrogenic basis function :  2 p   1.700
  | Found hydrogenic basis function :  3 d   6.000
  | Found hydrogenic basis function :  2 s   4.900
  | Found hydrogenic basis function :  4 f   9.800
  | Found hydrogenic basis function :  3 p   5.200
  | Found hydrogenic basis function :  3 s   4.300
  | Found hydrogenic basis function :  5 g  14.400
  | Found hydrogenic basis function :  3 d   6.200
  Species C                   : Missing cutoff potential type.
  Defaulting to exp(1/x)/(1-x)^2 type cutoff potential.
  Species C : No 'logarithmic' tag. Using default grid for free atom:
  | Default logarithmic grid data [bohr] : 0.1000E-03 0.1000E+03 0.1012E+01
  Species C : On-site basis accuracy parameter (for Gram-Schmidt orthonormalisation) not specified.
  Using default value basis_acc =  0.1000000E-03.
  Species C                   : Using default innermost maximum threshold i_radial=  2 for radial functions.
  Species C                   : Default cutoff onset for free atom density etc. : 0.40000000E+01 AA.
  Species C                   : Basic radial grid will be enhanced according to radial_multiplier =   2, to contain    69 grid points.

  Reading configuration options for species O                   .
  | Found nuclear charge :   8.0000
  | Found atomic mass :    15.9994000000000      amu
  | Found l_max for Hartree potential  :   6
  | Found cutoff potl. onset [A], width [A], scale factor :    4.00000    2.00000    1.00000
  | Threshold for basis-dependent cutoff potential is   0.100000E-03
  | Found data for basic radial integration grid :    36 points, outermost radius =    7.000 A
  | Found multiplier for basic radial grid :   2
  | Found angular grid specification: user-specified.
  | Specified grid contains     6 separate shells.
  | Check grid settings after all constraints further below.
  | Found free-atom valence shell :  2 s   2.000
  | Found free-atom valence shell :  2 p   4.000
  | Found free-ion valence shell :  2 s   1.000
  | Found free-ion valence shell :  2 p   3.000
  | Found hydrogenic basis function :  2 p   1.800
  | Found hydrogenic basis function :  3 d   7.600
  | Found hydrogenic basis function :  3 s   6.400
  | Found hydrogenic basis function :  4 f  11.600
  | Found hydrogenic basis function :  3 p   6.200
  | Found hydrogenic basis function :  3 d   5.600
  | Found hydrogenic basis function :  5 g  17.600
  | Found hydrogenic basis function :  1 s   0.750
  Species O                   : Missing cutoff potential type.
  Defaulting to exp(1/x)/(1-x)^2 type cutoff potential.
  Species O : No 'logarithmic' tag. Using default grid for free atom:
  | Default logarithmic grid data [bohr] : 0.1000E-03 0.1000E+03 0.1012E+01
  Species O : On-site basis accuracy parameter (for Gram-Schmidt orthonormalisation) not specified.
  Using default value basis_acc =  0.1000000E-03.
  Species O                   : Using default innermost maximum threshold i_radial=  2 for radial functions.
  Species O                   : Default cutoff onset for free atom density etc. : 0.40000000E+01 AA.
  Species O                   : Basic radial grid will be enhanced according to radial_multiplier =   2, to contain    73 grid points.

  Reading configuration options for species Cu                  .
  | Found nuclear charge :  29.0000
  | Found atomic mass :    63.5460000000000      amu
  | Found l_max for Hartree potential  :   6
  | Found cutoff potl. onset [A], width [A], scale factor :    4.00000    2.00000    1.00000
  | Threshold for basis-dependent cutoff potential is   0.100000E-03
  | Found data for basic radial integration grid :    53 points, outermost radius =    7.000 A
  | Found multiplier for basic radial grid :   2
  | Found angular grid specification: user-specified.
  | Specified grid contains     6 separate shells.
  | Check grid settings after all constraints further below.
  | Found free-atom valence shell :  4 s   1.000
  | Found free-atom valence shell :  3 p   6.000
  | Found free-atom valence shell :  3 d  10.000
  | Found free-ion valence shell :  4 s   0.000
  | Found free-ion valence shell :  3 p   6.000
  | Found free-ion valence shell :  3 d   9.000
  | Found ionic basis function :  4 p , default cutoff radius.
  | Found hydrogenic basis function :  4 f   7.400
  | Found hydrogenic basis function :  3 s   2.600
  | Found hydrogenic basis function :  3 d   5.000
  | Found hydrogenic basis function :  5 g  10.400
  Species Cu                  : Missing cutoff potential type.
  Defaulting to exp(1/x)/(1-x)^2 type cutoff potential.
  Species Cu: No 'logarithmic' tag. Using default grid for free atom:
  | Default logarithmic grid data [bohr] : 0.1000E-03 0.1000E+03 0.1012E+01
  | Will include ionic basis functions of  2.0-fold positive Cu                   ion.
  Species Cu: On-site basis accuracy parameter (for Gram-Schmidt orthonormalisation) not specified.
  Using default value basis_acc =  0.1000000E-03.
  Species Cu                  : Using default innermost maximum threshold i_radial=  2 for radial functions.
  Species Cu                  : Default cutoff onset for free atom density etc. : 0.40000000E+01 AA.
  Species Cu                  : Basic radial grid will be enhanced according to radial_multiplier =   2, to contain   107 grid points.

  Reading configuration options for species Au                  .
  | Found nuclear charge :  79.0000
  | Found atomic mass :    196.966569000000      amu
  | Found l_max for Hartree potential  :   6
  | Found cutoff potl. onset [A], width [A], scale factor :    4.00000    2.00000    1.00000
  | Threshold for basis-dependent cutoff potential is   0.100000E-03
  | Found data for basic radial integration grid :    73 points, outermost radius =    7.000 A
  | Found multiplier for basic radial grid :   2
  | Found angular grid specification: user-specified.
  | Specified grid contains     6 separate shells.
  | Check grid settings after all constraints further below.
  | Found free-atom valence shell :  6 s   1.000
  | Found free-atom valence shell :  5 p   6.000
  | Found free-atom valence shell :  5 d  10.000
  | Found free-atom valence shell :  4 f  14.000
  | Found free-ion valence shell :  6 s   0.000
  | Found free-ion valence shell :  5 p   6.000
  | Found free-ion valence shell :  5 d   9.000
  | Found free-ion valence shell :  4 f  14.000
  | Found ionic basis function :  6 p , default cutoff radius.
  | Found hydrogenic basis function :  4 f   7.400
  | Found ionic basis function :  6 s , default cutoff radius.
  | Found hydrogenic basis function :  5 g  10.000
  | Found hydrogenic basis function :  6 h  12.800
  | Found hydrogenic basis function :  3 d   2.500
  Species Au                  : Missing cutoff potential type.
  Defaulting to exp(1/x)/(1-x)^2 type cutoff potential.
  Species Au: No 'logarithmic' tag. Using default grid for free atom:
  | Default logarithmic grid data [bohr] : 0.1000E-03 0.1000E+03 0.1012E+01
  | Will include ionic basis functions of  2.0-fold positive Au                   ion.
  Species Au: On-site basis accuracy parameter (for Gram-Schmidt orthonormalisation) not specified.
  Using default value basis_acc =  0.1000000E-03.
  Species Au                  : Using default innermost maximum threshold i_radial=  2 for radial functions.
  Species Au                  : Default cutoff onset for free atom density etc. : 0.40000000E+01 AA.
  Species Au                  : Basic radial grid will be enhanced according to radial_multiplier =   2, to contain   147 grid points.

  Finished reading input file 'control.in'. Consistency checks are next.

  Target number of points in a grid batch is not set. Defaulting to  100
  Method for grid partitioning is not set. Defaulting to parallel hash+maxmin partitioning.
  Batch size limit is not set. Defaulting to    200
  By default, will store active basis functions for each batch.
  If in need of memory, prune_basis_once .false. can be used to disable this option.
  communication_type for Hartree potential was not specified.
  Defaulting to calc_hartree .
  Pulay mixer: Number of initial linear mixing iterations not set.
  Defaulting to    0 iterations.
  Work space size for distributed Hartree potential not set.
  Defaulting to   0.200000E+03 MB.
  Algorithm-dependent basis array size parameters:
  | n_max_pulay                         :       10
  No maximum number of relaxation steps, defaulting to     1000
  Default initial Hessian is Lindh matrix (thres = 15.00) plus  0.200000E+01 eV/A^2 times unity.
  No maximum energy tolerance for TRM/BFGS moves, defaulting to   0.200000E-03
  No harmonic length scale. Defaulting to   0.250000E-01 A.
  No trust radius initializer. Defaulting to   0.200000E+00 A.
  Handling of forces: Unphysical translation and rotation will be removed from forces.
  No accuracy limit for integral partition fn. given. Defaulting to 0.1000E-14.
  No threshold value for u(r) in integrations given. Defaulting to 0.1000E-05.
  No accuracy for occupation numbers given. Defaulting to 0.1000E-07.
  No threshold value for occupation numbers given. Defaulting to 0.0000E+00.
  No accuracy for fermi level given. Defaulting to 0.1000E-19.
  Maximum # of iterations to find E_F not set. Defaulting to  200.
  Will not use alltoall communication since running on < 1024 CPUs.
  Threshold for basis singularities not set.
  Default threshold for basis singularities: 0.1000E-04
  partition_type (choice of integration weights) for integrals was not specified.
  | Using a version of the partition function of Stratmann and coworkers ('stratmann_smoother').
  | At each grid point, the set of atoms used to build the partition table is smoothly restricted to
  | only those atoms whose free-atom density would be non-zero at that grid point.
  Partitioning for Hartree potential was not defined. Using partition_type for integrals.
  | Adjusted default value of keyword multip_moments_threshold to:       0.10000000E-11
  | This value may affect high angular momentum components of the Hartree potential in periodic systems.
  No q(lm)/r^(l+1) cutoff set for long-range Hartree potential.
  | Using default value of  0.100000E-09 .
  | Verify using the multipole_threshold keyword.
  Defaulting to new monopole extrapolation.
  Density update method: automatic selection selected.
------------------------------------------------------------


------------------------------------------------------------
          Reading geometry description geometry.in.
------------------------------------------------------------
  Input structure read successfully.
  The structure contains       58 atoms,  and a total of       3705.000 electrons.

  Input geometry:
  | No unit cell requested.
  | Atomic structure:
  |       Atom                x [A]            y [A]            z [A]
  |    1: Species Au        -0.041880         3.461787         2.356223
  |    2: Species Au         1.232279         8.574027         3.964559
  |    3: Species Au        -0.003864         4.734142         7.715758
  |    4: Species Au         2.110035        -0.057343         6.007428
  |    5: Species Au         4.110093         6.155793        -0.062267
  |    6: Species Au         4.652572         0.821263         1.200181
  |    7: Species Au         4.171451         8.214566         8.609783
  |    8: Species Au         6.713986         9.093176         3.802528
  |    9: Species Au         7.591746         0.461806         5.845408
  |   10: Species Au         4.713932         2.880032         9.872226
  |   11: Species Au         8.827887         4.301685         2.094207
  |   12: Species Au         8.865899         5.574047         7.453733
  |   13: Species Au         0.492119         6.058352         3.113272
  |   14: Species Au         0.942975         1.626088         4.162277
  |   15: Species Au         2.248663         2.077320         1.693824
  |   16: Species Au         1.970048         4.816715         1.045347
  |   17: Species Au        -0.142559         4.086632         5.039602
  |   18: Species Au         4.380570         3.460803         0.451860
  |   19: Species Au         0.962343         2.279479         6.914471
  |   20: Species Au         6.168387         0.536876         3.485465
  |   21: Species Au         0.511644         6.711725         5.865447
  |   22: Species Au         5.439025         7.708414         1.788194
  |   23: Species Au         2.020945         6.527108         8.250809
  |   24: Species Au         2.299444         3.787934         8.899104
  |   25: Species Au         4.862741         0.085636         5.954040
  |   26: Species Au         3.961237         8.950195         3.855939
  |   27: Species Au         6.524548         5.247929         0.910847
  |   28: Species Au         2.624228         7.441866         1.871204
  |   29: Species Au         6.803058         2.508688         1.559162
  |   30: Species Au         3.353474         0.270355         3.568634
  |   31: Species Au         3.384997         1.327390         8.021738
  |   32: Species Au         2.655624         8.498968         6.324450
  |   33: Species Au         8.966567         4.949194         4.770345
  |   34: Species Au         5.470520         8.765477         6.241313
  |   35: Species Au         6.199769         1.593959         7.938745
  |   36: Species Au         6.853957         4.219104         8.764610
  |   37: Species Au         6.575341         6.958514         8.116129
  |   38: Species Au         8.312355         2.324100         3.944496
  |   39: Species Au         7.861655         6.756351         2.895471
  |   40: Species Au         4.443423         5.575031         9.358090
  |   41: Species Au         7.881032         7.409744         5.647676
  |   42: Species Au         8.331886         2.977464         6.696679
  |   43: Species Cu         4.412002         4.517914         4.904976
  |   44: Species Cu         2.298410         4.016698         3.695444
  |   45: Species Cu         2.903002         6.442794         4.458651
  |   46: Species Cu         3.319593         2.346668         5.428166
  |   47: Species Cu         2.316421         4.620532         6.238917
  |   48: Species Cu         4.526149         2.763662         3.146855
  |   49: Species Cu         4.268753         5.295224         2.547690
  |   50: Species Cu         6.525595         5.019129         6.114508
  |   51: Species Cu         5.921000         2.593029         5.351298
  |   52: Species Cu         5.504409         6.689162         4.381783
  |   53: Species Cu         4.297851         6.272168         6.663096
  |   54: Species Cu         6.507582         4.415296         3.571030
  |   55: Species Cu         4.555248         3.740603         7.262262
  |   56: Species O          3.881270        10.449400         2.701980
  |   57: Species H          4.851270        10.449400         2.701980
  |   58: Species H          3.557940        11.090390         2.049690
  |
  | Closest distance between atoms is    0.970 AA.

  Number of empty states per atom not set in control.in - providing a guess from actual geometry.
  | Total number of empty states used during s.c.f. cycle:      456
  If you use a very high smearing, use empty_states (per atom!) in control.in to increase this value.

  Structure-dependent array size parameters:
  | Maximum number of distinct radial functions  :       61
  | Maximum number of basis functions            :     3781
  | Number of Kohn-Sham states (occupied + empty):     2309
------------------------------------------------------------

------------------------------------------------------------
          Preparing all fixed parts of the calculation.
------------------------------------------------------------
  Determining machine precision:
    2.225073858507201E-308
  Setting up grids for atomic and cluster calculations.

  Creating wave function, potential, and density for free atoms.

  Species: H

  List of occupied orbitals and eigenvalues:
    n    l              occ      energy [Ha]    energy [eV]
    1    0           1.0000        -0.238386        -6.4868


  Species: C

  List of occupied orbitals and eigenvalues:
    n    l              occ      energy [Ha]    energy [eV]
    1    0           2.0000       -10.049212      -273.4530
    2    0           2.0000        -0.504761       -13.7352
    2    1           2.0000        -0.193631        -5.2690


  Species: O

  List of occupied orbitals and eigenvalues:
    n    l              occ      energy [Ha]    energy [eV]
    1    0           2.0000       -18.927378      -515.0401
    2    0           2.0000        -0.880539       -23.9607
    2    1           4.0000        -0.331811        -9.0290


  Species: Cu

  List of occupied orbitals and eigenvalues:
    n    l              occ      energy [Ha]    energy [eV]
    1    0           2.0000      -328.699981     -8944.3816
    2    0           2.0000       -39.104975     -1064.1005
    3    0           2.0000        -4.213299      -114.6497
    4    0           1.0000        -0.167360        -4.5541
    2    1           6.0000       -33.744053      -918.2224
    3    1           6.0000        -2.648604       -72.0722
    3    2          10.0000        -0.183215        -4.9855


  Species: Au

  List of occupied orbitals and eigenvalues:
    n    l              occ      energy [Ha]    energy [eV]
    1    0           2.0000     -3256.434633    -88612.0949
    2    0           2.0000      -533.658033    -14521.5739
    3    0           2.0000      -124.235224     -3380.6125
    4    0           2.0000       -26.846951      -730.5427
    5    0           2.0000        -3.977367      -108.2297
    6    0           1.0000        -0.210392        -5.7251
    2    1           6.0000      -460.387254    -12527.7746
    3    1           6.0000      -103.452063     -2815.0739
    4    1           6.0000       -20.078917      -546.3751
    5    1           6.0000        -2.192843       -59.6703
    3    2          10.0000       -81.367955     -2214.1347
    4    2          10.0000       -11.978294      -325.9460
    5    2          10.0000        -0.251979        -6.8567
    4    3          14.0000        -2.988656       -81.3255

  Creating fixed part of basis set: Ionic, confined, hydrogenic.

  H                    hydrogenic:

  List of hydrogenic basis orbitals:
    n    l      effective z      eigenvalue [eV]  inner max. [A]     outer max. [A]     outer radius [A]
    2    0         2.100000       -14.9965           0.193243           1.317208           5.373006
    2    1         3.500000       -41.6672           0.602369           0.602369           4.056063
    1    0         0.850000        -9.8292           0.624871           0.624871           5.373006
    2    1         3.700000       -46.5653           0.573622           0.573622           3.910002
    2    0         1.200000        -4.5995           0.334980           2.228188           5.505995
    3    2         7.000000       -74.0753           0.680699           0.680699           3.769201


  C                    hydrogenic:

  List of hydrogenic basis orbitals:
    n    l      effective z      eigenvalue [eV]  inner max. [A]     outer max. [A]     outer radius [A]
    2    1         1.700000        -9.8152           1.245706           1.245706           5.401630
    3    2         6.000000       -54.4226           0.792453           0.792453           4.178599
    2    0         4.900000       -81.6681           0.082559           0.562749           3.353238
    4    3         9.800000       -81.6681           0.863254           0.863254           4.028125
    3    1         5.200000       -40.8774           0.305389           1.215618           4.898362
    3    0         4.300000       -27.9508           0.091041           1.610311           5.401630
    5    4        14.400000      -112.8510           0.917666           0.917666           3.883070
    3    2         6.200000       -58.1113           0.763917           0.763917           4.077671


  O                    hydrogenic:

  List of hydrogenic basis orbitals:
    n    l      effective z      eigenvalue [eV]  inner max. [A]     outer max. [A]     outer radius [A]
    2    1         1.800000       -11.0118           1.178562           1.178562           5.432602
    3    2         7.600000       -87.3182           0.624125           0.624125           3.541477
    3    0         6.400000       -61.9209           0.061167           1.081902           4.306578
    4    3        11.600000      -114.4238           0.731631           0.731631           3.585037
    3    1         6.200000       -58.1113           0.255680           1.030270           4.306578
    3    2         5.600000       -47.4081           0.847233           0.847233           4.413171
    5    4        17.600000      -168.5799           0.749740           0.749740           3.372465
    1    0         0.750000        -7.6499           0.705284           0.705284           5.366593


  Cu                   ion:

  List of free ionic orbitals and eigenvalues:
    n    l      energy [Ha]    energy [eV]
    1    0      -329.653429     -8970.3262
    2    0       -40.053714     -1089.9170
    3    0        -5.155617      -140.2915
    2    1       -34.692083      -944.0196
    3    1        -3.586956       -97.6060
    3    2        -1.088907       -29.6307


  List of ionic basis orbitals and eigenvalues:
    n    l      energy [Ha]    energy [eV]    outer radius [A]
    4    1        -0.563838       -15.3428       5.409666


  Cu                   hydrogenic:

  List of hydrogenic basis orbitals:
    n    l      effective z      eigenvalue [eV]  inner max. [A]     outer max. [A]     outer radius [A]
    4    3         7.400000       -46.5653           1.145240           1.145240           4.905649
    3    0         2.600000        -9.8948           0.150509           2.597861           5.476205
    3    2         5.000000       -37.7934           0.953362           0.953362           4.728994
    5    4        10.400000       -58.8635           1.278438           1.278438           4.905649


  Au                   ion:

  List of free ionic orbitals and eigenvalues:
    n    l      energy [Ha]    energy [eV]
    1    0     -3257.305345    -88635.7882
    2    0      -534.468969    -14543.6406
    3    0      -125.037161     -3402.4343
    4    0       -27.646714      -752.3054
    5    0        -4.773414      -129.8912
    2    1      -461.196653    -12549.7994
    3    1      -104.253556     -2836.8836
    4    1       -20.878488      -568.1326
    5    1        -2.984283       -81.2065
    3    2       -82.168946     -2235.9308
    4    2       -12.777596      -347.6961
    5    2        -1.004504       -27.3340
    4    3        -3.787521      -103.0637


  List of ionic basis orbitals and eigenvalues:
    n    l      energy [Ha]    energy [eV]    outer radius [A]
    6    1        -0.536435       -14.5971       5.411271
    6    0        -0.835588       -22.7375       5.090413


  Au                   hydrogenic:

  List of hydrogenic basis orbitals:
    n    l      effective z      eigenvalue [eV]  inner max. [A]     outer max. [A]     outer radius [A]
    4    3         7.400000       -46.5653           1.145580           1.145580           4.907105
    5    4        10.000000       -54.4226           1.326589           1.326589           5.028562
    6    5        12.800000       -61.9208           1.480879           1.480879           5.153025
    3    2         2.500000        -9.3396           1.868078           1.868078           5.477829


  Adding cutoff potential to free-atom effective potential.
  Creating atomic-like basis functions for current effective potential.

  Species H                   :

  List of atomic basis orbitals and eigenvalues:
    n    l      energy [Ha]    energy [eV]    outer radius [A]
    1    0        -0.238386        -6.4868       5.373006


  Species C                   :

  List of atomic basis orbitals and eigenvalues:
    n    l      energy [Ha]    energy [eV]    outer radius [A]
    1    0       -10.049212      -273.4530       1.934409
    2    0        -0.504761       -13.7352       5.271162
    2    1        -0.193631        -5.2690       5.401630


  Species O                   :

  List of atomic basis orbitals and eigenvalues:
    n    l      energy [Ha]    energy [eV]    outer radius [A]
    1    0       -18.927378      -515.0401       1.415765
    2    0        -0.880539       -23.9607       5.048385
    2    1        -0.331811        -9.0290       5.301386


  Species Cu                  :

  List of atomic basis orbitals and eigenvalues:
    n    l      energy [Ha]    energy [eV]    outer radius [A]
    1    0      -328.699981     -8944.3816       0.367398
    2    0       -39.104975     -1064.1005       1.064244
    3    0        -4.213299      -114.6497       3.082799
    4    0        -0.167360        -4.5541       5.409666
    2    1       -33.744053      -918.2224       1.117579
    3    1        -2.648604       -72.0722       3.748807
    3    2        -0.183215        -4.9855       5.343935


  Species Au                  :

  List of atomic basis orbitals and eigenvalues:
    n    l      energy [Ha]    energy [eV]    outer radius [A]
    1    0     -3256.434633    -88612.0949       0.120816
    2    0      -533.658033    -14521.5739       0.313506
    3    0      -124.235224     -3380.6125       0.652830
    4    0       -26.846951      -730.5427       1.359424
    5    0        -3.977367      -108.2297       3.318406
    6    0        -0.210392        -5.7251       5.411271
    2    1      -460.387254    -12527.7746       0.329217
    3    1      -103.452063     -2815.0739       0.702515
    4    1       -20.078917      -546.3751       1.536198
    5    1        -2.192843       -59.6703       4.237546
    3    2       -81.367955     -2214.1347       0.755981
    4    2       -11.978294      -325.9460       1.868078
    5    2        -0.251979        -6.8567       5.345521
    4    3        -2.988656       -81.3255       3.160040

  Assembling full basis from fixed parts.
  | Species H :   atomic orbital   1 s accepted.
  | Species H :    hydro orbital   2 s accepted.
  | Species H :    hydro orbital   1 s accepted.
  | Species H :    hydro orbital   2 s accepted.
  | Species H :    hydro orbital   2 p accepted.
  | Species H :    hydro orbital   2 p accepted.
  | Species H :    hydro orbital   3 d accepted.
  | Species C :   atomic orbital   1 s accepted.
  | Species C :    hydro orbital   2 s accepted.
  | Species C :   atomic orbital   2 s accepted.
  | Species C :    hydro orbital   3 s accepted.
  | Species C :    hydro orbital   3 p accepted.
  | Species C :   atomic orbital   2 p accepted.
  | Species C :    hydro orbital   2 p accepted.
  | Species C :    hydro orbital   3 d accepted.
  | Species C :    hydro orbital   3 d accepted.
  | Species C :    hydro orbital   4 f accepted.
  | Species C :    hydro orbital   5 g accepted.
  | Species O :   atomic orbital   1 s accepted.
  | Species O :    hydro orbital   3 s accepted.
  | Species O :   atomic orbital   2 s accepted.
  | Species O :    hydro orbital   1 s accepted.
  | Species O :    hydro orbital   3 p accepted.
  | Species O :   atomic orbital   2 p accepted.
  | Species O :    hydro orbital   2 p accepted.
  | Species O :    hydro orbital   3 d accepted.
  | Species O :    hydro orbital   3 d accepted.
  | Species O :    hydro orbital   4 f accepted.
  | Species O :    hydro orbital   5 g accepted.
  | Species Cu :   atomic orbital   1 s accepted.
  | Species Cu :   atomic orbital   2 s accepted.
  | Species Cu :   atomic orbital   3 s accepted.
  | Species Cu :   atomic orbital   4 s accepted.
  | Species Cu :    hydro orbital   3 s accepted.
  | Species Cu :   atomic orbital   2 p accepted.
  | Species Cu :   atomic orbital   3 p accepted.
  | Species Cu :    ionic orbital   4 p accepted.
  | Species Cu :    hydro orbital   3 d accepted.
  | Species Cu :   atomic orbital   3 d accepted.
  | Species Cu :    hydro orbital   4 f accepted.
  | Species Cu :    hydro orbital   5 g accepted.
  | Species Au :   atomic orbital   1 s accepted.
  | Species Au :   atomic orbital   2 s accepted.
  | Species Au :   atomic orbital   3 s accepted.
  | Species Au :   atomic orbital   4 s accepted.
  | Species Au :   atomic orbital   5 s accepted.
  | Species Au :    ionic orbital   6 s accepted.
  | Species Au :   atomic orbital   6 s accepted.
  | Species Au :   atomic orbital   2 p accepted.
  | Species Au :   atomic orbital   3 p accepted.
  | Species Au :   atomic orbital   4 p accepted.
  | Species Au :   atomic orbital   5 p accepted.
  | Species Au :    ionic orbital   6 p accepted.
  | Species Au :   atomic orbital   3 d accepted.
  | Species Au :   atomic orbital   4 d accepted.
  | Species Au :   atomic orbital   5 d accepted.
  | Species Au :    hydro orbital   3 d accepted.
  | Species Au :   atomic orbital   4 f accepted.
  | Species Au :    hydro orbital   4 f accepted.
  | Species Au :    hydro orbital   5 g accepted.
  | Species Au :    hydro orbital   6 h accepted.

  Basis size parameters after reduction:
  | Total number of radial functions:       61
  | Total number of basis functions :     3781

  Preparing densities etc. for the partition functions (integrals / Hartree potential).

  Preparations completed.
  max(cpu_time)          :      0.660 s.
  Wall clock time (cpu1) :      0.658 s.
------------------------------------------------------------

------------------------------------------------------------
          Begin self-consistency loop: Initialization.

          Date     :  20131118, Time     :  122516.885
------------------------------------------------------------

  Initializing index lists of integration centers etc. from given atomic structure:
  | Number of centers in hartree potential         :        58
  | Number of centers in hartree multipole         :        58
  | Number of centers in electron density summation:        58
  | Number of centers in basis integrals           :        58
  | Number of centers in integrals                 :        58
  Initializing relaxation algorithms.
  Using modified Scalapack Eigenvalue solver (ELPA)
  * Using 144 tasks for Scalapack Eigenvalue solver.
  Detailed listing of tasks and assigned k-points:
  (for non-periodic systems, the "k-point" denotes an internal label only)
   Task     0 k-point     1 on nid00158
   Task     1 k-point     1 on nid00158
   Task     2 k-point     1 on nid00158
   Task     3 k-point     1 on nid00158
   Task     4 k-point     1 on nid00158
   Task     5 k-point     1 on nid00158
   Task     6 k-point     1 on nid00158
   Task     7 k-point     1 on nid00158
   Task     8 k-point     1 on nid00158
   Task     9 k-point     1 on nid00158
   Task    10 k-point     1 on nid00158
   Task    11 k-point     1 on nid00158
   Task    12 k-point     1 on nid00158
   Task    13 k-point     1 on nid00158
   Task    14 k-point     1 on nid00158
   Task    15 k-point     1 on nid00158
   Task    16 k-point     1 on nid00158
   Task    17 k-point     1 on nid00158
   Task    18 k-point     1 on nid00158
   Task    19 k-point     1 on nid00158
   Task    20 k-point     1 on nid00158
   Task    21 k-point     1 on nid00158
   Task    22 k-point     1 on nid00158
   Task    23 k-point     1 on nid00158
   Task    24 k-point     1 on nid00159
   Task    25 k-point     1 on nid00159
   Task    26 k-point     1 on nid00159
   Task    27 k-point     1 on nid00159
   Task    28 k-point     1 on nid00159
   Task    29 k-point     1 on nid00159
   Task    30 k-point     1 on nid00159
   Task    31 k-point     1 on nid00159
   Task    32 k-point     1 on nid00159
   Task    33 k-point     1 on nid00159
   Task    34 k-point     1 on nid00159
   Task    35 k-point     1 on nid00159
   Task    36 k-point     1 on nid00159
   Task    37 k-point     1 on nid00159
   Task    38 k-point     1 on nid00159
   Task    39 k-point     1 on nid00159
   Task    40 k-point     1 on nid00159
   Task    41 k-point     1 on nid00159
   Task    42 k-point     1 on nid00159
   Task    43 k-point     1 on nid00159
   Task    44 k-point     1 on nid00159
   Task    45 k-point     1 on nid00159
   Task    46 k-point     1 on nid00159
   Task    47 k-point     1 on nid00159
   Task    48 k-point     1 on nid00160
   Task    49 k-point     1 on nid00160
   Task    50 k-point     1 on nid00160
   Task    51 k-point     1 on nid00160
   Task    52 k-point     1 on nid00160
   Task    53 k-point     1 on nid00160
   Task    54 k-point     1 on nid00160
   Task    55 k-point     1 on nid00160
   Task    56 k-point     1 on nid00160
   Task    57 k-point     1 on nid00160
   Task    58 k-point     1 on nid00160
   Task    59 k-point     1 on nid00160
   Task    60 k-point     1 on nid00160
   Task    61 k-point     1 on nid00160
   Task    62 k-point     1 on nid00160
   Task    63 k-point     1 on nid00160
   Task    64 k-point     1 on nid00160
   Task    65 k-point     1 on nid00160
   Task    66 k-point     1 on nid00160
   Task    67 k-point     1 on nid00160
   Task    68 k-point     1 on nid00160
   Task    69 k-point     1 on nid00160
   Task    70 k-point     1 on nid00160
   Task    71 k-point     1 on nid00160
   Task    72 k-point     1 on nid00161
   Task    73 k-point     1 on nid00161
   Task    74 k-point     1 on nid00161
   Task    75 k-point     1 on nid00161
   Task    76 k-point     1 on nid00161
   Task    77 k-point     1 on nid00161
   Task    78 k-point     1 on nid00161
   Task    79 k-point     1 on nid00161
   Task    80 k-point     1 on nid00161
   Task    81 k-point     1 on nid00161
   Task    82 k-point     1 on nid00161
   Task    83 k-point     1 on nid00161
   Task    84 k-point     1 on nid00161
   Task    85 k-point     1 on nid00161
   Task    86 k-point     1 on nid00161
   Task    87 k-point     1 on nid00161
   Task    88 k-point     1 on nid00161
   Task    89 k-point     1 on nid00161
   Task    90 k-point     1 on nid00161
   Task    91 k-point     1 on nid00161
   Task    92 k-point     1 on nid00161
   Task    93 k-point     1 on nid00161
   Task    94 k-point     1 on nid00161
   Task    95 k-point     1 on nid00161
   Task    96 k-point     1 on nid00162
   Task    97 k-point     1 on nid00162
   Task    98 k-point     1 on nid00162
   Task    99 k-point     1 on nid00162
   Task   100 k-point     1 on nid00162
   Task   101 k-point     1 on nid00162
   Task   102 k-point     1 on nid00162
   Task   103 k-point     1 on nid00162
   Task   104 k-point     1 on nid00162
   Task   105 k-point     1 on nid00162
   Task   106 k-point     1 on nid00162
   Task   107 k-point     1 on nid00162
   Task   108 k-point     1 on nid00162
   Task   109 k-point     1 on nid00162
   Task   110 k-point     1 on nid00162
   Task   111 k-point     1 on nid00162
   Task   112 k-point     1 on nid00162
   Task   113 k-point     1 on nid00162
   Task   114 k-point     1 on nid00162
   Task   115 k-point     1 on nid00162
   Task   116 k-point     1 on nid00162
   Task   117 k-point     1 on nid00162
   Task   118 k-point     1 on nid00162
   Task   119 k-point     1 on nid00162
   Task   120 k-point     1 on nid00163
   Task   121 k-point     1 on nid00163
   Task   122 k-point     1 on nid00163
   Task   123 k-point     1 on nid00163
   Task   124 k-point     1 on nid00163
   Task   125 k-point     1 on nid00163
   Task   126 k-point     1 on nid00163
   Task   127 k-point     1 on nid00163
   Task   128 k-point     1 on nid00163
   Task   129 k-point     1 on nid00163
   Task   130 k-point     1 on nid00163
   Task   131 k-point     1 on nid00163
   Task   132 k-point     1 on nid00163
   Task   133 k-point     1 on nid00163
   Task   134 k-point     1 on nid00163
   Task   135 k-point     1 on nid00163
   Task   136 k-point     1 on nid00163
   Task   137 k-point     1 on nid00163
   Task   138 k-point     1 on nid00163
   Task   139 k-point     1 on nid00163
   Task   140 k-point     1 on nid00163
   Task   141 k-point     1 on nid00163
   Task   142 k-point     1 on nid00163
   Task   143 k-point     1 on nid00163
  Tasks:   144 split into     12 X     12 BLACS grid
  Calculating blocksize based on n_basis =         3781 max_nprow =           12 max_npcol =           12
  Scalapack blocksize set to:           16
  Required Scalapack workspace - INTEGER:            1 REAL:             1
  Partitioning the integration grid into batches with parallel hashing+maxmin method.
  | Number of batches:    12758
  | Maximal batch size:     200
  | Minimal batch size:       1
  | Average batch size:     123.194
  | Standard deviation of batch sizes:      28.528

  Integration load balanced across   144 MPI tasks.
  Work distribution over tasks is as follows:
  Task     0 has      10864 integration points.
  Task     1 has      10892 integration points.
  Task     2 has      10859 integration points.
  Task     3 has      10967 integration points.
  Task     4 has      10868 integration points.
  Task     5 has      10881 integration points.
  Task     6 has      10893 integration points.
  Task     7 has      10977 integration points.
  Task     8 has      10898 integration points.
  Task     9 has      10889 integration points.
  Task    10 has      10917 integration points.
  Task    11 has      10857 integration points.
  Task    12 has      10852 integration points.
  Task    13 has      10888 integration points.
  Task    14 has      10859 integration points.
  Task    15 has      10978 integration points.
  Task    16 has      10957 integration points.
  Task    17 has      10850 integration points.
  Task    18 has      10915 integration points.
  Task    19 has      10853 integration points.
  Task    20 has      10954 integration points.
  Task    21 has      11001 integration points.
  Task    22 has      10851 integration points.
  Task    23 has      10955 integration points.
  Task    24 has      10959 integration points.
  Task    25 has      10971 integration points.
  Task    26 has      10977 integration points.
  Task    27 has      10850 integration points.
  Task    28 has      10957 integration points.
  Task    29 has      10969 integration points.
  Task    30 has      10956 integration points.
  Task    31 has      10958 integration points.
  Task    32 has      10898 integration points.
  Task    33 has      10998 integration points.
  Task    34 has      10850 integration points.
  Task    35 has      10852 integration points.
  Task    36 has      10895 integration points.
  Task    37 has      10964 integration points.
  Task    38 has      10964 integration points.
  Task    39 has      10962 integration points.
  Task    40 has      10895 integration points.
  Task    41 has      10967 integration points.
  Task    42 has      10967 integration points.
  Task    43 has      10980 integration points.
  Task    44 has      10949 integration points.
  Task    45 has      10864 integration points.
  Task    46 has      10855 integration points.
  Task    47 has      10978 integration points.
  Task    48 has      10893 integration points.
  Task    49 has      10850 integration points.
  Task    50 has      10953 integration points.
  Task    51 has      10966 integration points.
  Task    52 has      10919 integration points.
  Task    53 has      10894 integration points.
  Task    54 has      10890 integration points.
  Task    55 has      10997 integration points.
  Task    56 has      10884 integration points.
  Task    57 has      10965 integration points.
  Task    58 has      10891 integration points.
  Task    59 has      10980 integration points.
  Task    60 has      10892 integration points.
  Task    61 has      10957 integration points.
  Task    62 has      10916 integration points.
  Task    63 has      10883 integration points.
  Task    64 has      10955 integration points.
  Task    65 has      10959 integration points.
  Task    66 has      10886 integration points.
  Task    67 has      10857 integration points.
  Task    68 has      10896 integration points.
  Task    69 has      10977 integration points.
  Task    70 has      10952 integration points.
  Task    71 has      10857 integration points.
  Task    72 has      10889 integration points.
  Task    73 has      10881 integration points.
  Task    74 has      10992 integration points.
  Task    75 has      10881 integration points.
  Task    76 has      10886 integration points.
  Task    77 has      10855 integration points.
  Task    78 has      10894 integration points.
  Task    79 has      10969 integration points.
  Task    80 has      10850 integration points.
  Task    81 has      10889 integration points.
  Task    82 has      10866 integration points.
  Task    83 has      10900 integration points.
  Task    84 has      10860 integration points.
  Task    85 has      10859 integration points.
  Task    86 has      10913 integration points.
  Task    87 has      10862 integration points.
  Task    88 has      10957 integration points.
  Task    89 has      10861 integration points.
  Task    90 has      10962 integration points.
  Task    91 has      10863 integration points.
  Task    92 has      10855 integration points.
  Task    93 has      10864 integration points.
  Task    94 has      10861 integration points.
  Task    95 has      10852 integration points.
  Task    96 has      10982 integration points.
  Task    97 has      10945 integration points.
  Task    98 has      10966 integration points.
  Task    99 has      10888 integration points.
  Task   100 has      11003 integration points.
  Task   101 has      10968 integration points.
  Task   102 has      10859 integration points.
  Task   103 has      10884 integration points.
  Task   104 has      10971 integration points.
  Task   105 has      11000 integration points.
  Task   106 has      10895 integration points.
  Task   107 has      10952 integration points.
  Task   108 has      10892 integration points.
  Task   109 has      10897 integration points.
  Task   110 has      10861 integration points.
  Task   111 has      10856 integration points.
  Task   112 has      10892 integration points.
  Task   113 has      10887 integration points.
  Task   114 has      10955 integration points.
  Task   115 has      10863 integration points.
  Task   116 has      10955 integration points.
  Task   117 has      10884 integration points.
  Task   118 has      10969 integration points.
  Task   119 has      10862 integration points.
  Task   120 has      10888 integration points.
  Task   121 has      10878 integration points.
  Task   122 has      10980 integration points.
  Task   123 has      10889 integration points.
  Task   124 has      10979 integration points.
  Task   125 has      10936 integration points.
  Task   126 has      10964 integration points.
  Task   127 has      10964 integration points.
  Task   128 has      10973 integration points.
  Task   129 has      10880 integration points.
  Task   130 has      10952 integration points.
  Task   131 has      10952 integration points.
  Task   132 has      10886 integration points.
  Task   133 has      10887 integration points.
  Task   134 has      10891 integration points.
  Task   135 has      10891 integration points.
  Task   136 has      11001 integration points.
  Task   137 has      10951 integration points.
  Task   138 has      10893 integration points.
  Task   139 has      10852 integration points.
  Task   140 has      10849 integration points.
  Task   141 has      10968 integration points.
  Task   142 has      10949 integration points.
  Task   143 has      10865 integration points.
  Initializing partition tables, free-atom densities, potentials, etc.
  across the integration grid (initialize_grid_storage).
  | initialize_grid_storage: Actual outermost partition radius vs. multipole_radius_free
  | (-- VB: in principle, multipole_radius_free should be larger, hence this output)
  | Species        1: outer_partition_radius =              6.000000000000000 AA, multipole_radius_free =              6.071692442739658 AA.
  | Species        2: outer_partition_radius =              6.000000000000000 AA, multipole_radius_free =              6.029870734432609 AA.
  | Species        3: outer_partition_radius =              6.000000000000000 AA, multipole_radius_free =              6.064445521808699 AA.
  | Species        4: outer_partition_radius =              6.000000000000000 AA, multipole_radius_free =              6.038841212042898 AA.
  | Species        5: outer_partition_radius =              6.000000000000000 AA, multipole_radius_free =              6.040632965187119 AA.
  | Net number of integration points:  1571704
  | of which are non-zero points    :  1297050
  Obtaining max. number of non-zero basis functions in each batch (get_n_compute_maxes).
  | Maximal number of non-zero basis functions:     1938 in task     0
  | Maximal number of non-zero basis functions:     2159 in task     1
  | Maximal number of non-zero basis functions:     2154 in task     2
  | Maximal number of non-zero basis functions:     2001 in task     3
  | Maximal number of non-zero basis functions:     1717 in task     4
  | Maximal number of non-zero basis functions:     2068 in task     5
  | Maximal number of non-zero basis functions:     1945 in task     6
  | Maximal number of non-zero basis functions:     2100 in task     7
  | Maximal number of non-zero basis functions:     1938 in task     8
  | Maximal number of non-zero basis functions:     2143 in task     9
  | Maximal number of non-zero basis functions:     2116 in task    10
  | Maximal number of non-zero basis functions:     2162 in task    11
  | Maximal number of non-zero basis functions:     1919 in task    12
  | Maximal number of non-zero basis functions:     1866 in task    13
  | Maximal number of non-zero basis functions:     1949 in task    14
  | Maximal number of non-zero basis functions:     2041 in task    15
  | Maximal number of non-zero basis functions:     2110 in task    16
  | Maximal number of non-zero basis functions:     2080 in task    17
  | Maximal number of non-zero basis functions:     2221 in task    18
  | Maximal number of non-zero basis functions:     2099 in task    19
  | Maximal number of non-zero basis functions:     2095 in task    20
  | Maximal number of non-zero basis functions:     2032 in task    21
  | Maximal number of non-zero basis functions:     2129 in task    22
  | Maximal number of non-zero basis functions:     1994 in task    23
  | Maximal number of non-zero basis functions:     2108 in task    24
  | Maximal number of non-zero basis functions:     1837 in task    25
  | Maximal number of non-zero basis functions:     2146 in task    26
  | Maximal number of non-zero basis functions:     2183 in task    27
  | Maximal number of non-zero basis functions:     2150 in task    28
  | Maximal number of non-zero basis functions:     2172 in task    29
  | Maximal number of non-zero basis functions:     1825 in task    30
  | Maximal number of non-zero basis functions:     1949 in task    31
  | Maximal number of non-zero basis functions:     2054 in task    32
  | Maximal number of non-zero basis functions:     2027 in task    33
[...]
  |                                 -0.00906198      -0.02991072      -0.12970734
  ----------------------------------------------------------------------
  | Atom    32: Au
  |   Hirshfeld charge        :     -0.00664793
  |   Free atom volume        :    128.21582128
  |   Hirshfeld volume        :    133.49611970
  |   Hirshfeld dipole vector :     -0.02012086       0.04913878       0.01704490
  |   Hirshfeld dipole moment :      0.05576735
  |   Hirshfeld second moments:     -0.15246061      -0.02420432      -0.00420926
  |                                 -0.02420432      -0.10395057       0.01701515
  |                                 -0.00420926       0.01701515      -0.14984507
  ----------------------------------------------------------------------
  | Atom    33: Au
  |   Hirshfeld charge        :     -0.00600187
  |   Free atom volume        :    128.21582128
  |   Hirshfeld volume        :    133.60178942
  |   Hirshfeld dipole vector :      0.05430328       0.00467883      -0.00136781
  |   Hirshfeld dipole moment :      0.05452163
  |   Hirshfeld second moments:     -0.08993545       0.00671815      -0.00192390
  |                                  0.00671815      -0.16487870       0.00193937
  |                                 -0.00192390       0.00193937      -0.15529105
  ----------------------------------------------------------------------
  | Atom    34: Au
  |   Hirshfeld charge        :     -0.00745148
  |   Free atom volume        :    128.21582128
  |   Hirshfeld volume        :    133.53668623
  |   Hirshfeld dipole vector :      0.01188534       0.05077636       0.01650821
  |   Hirshfeld dipole moment :      0.05469937
  |   Hirshfeld second moments:     -0.15969478       0.01510443       0.00169357
  |                                  0.01510443      -0.09878775       0.01688714
  |                                  0.00169357       0.01688714      -0.15068089
  ----------------------------------------------------------------------
  | Atom    35: Au
  |   Hirshfeld charge        :     -0.01096316
  |   Free atom volume        :    128.21582128
  |   Hirshfeld volume        :    133.70110442
  |   Hirshfeld dipole vector :      0.02006567      -0.03229051       0.03385105
  |   Hirshfeld dipole moment :      0.05090384
  |   Hirshfeld second moments:     -0.15359679      -0.01913947       0.01533061
  |                                 -0.01913947      -0.13496099      -0.02691367
  |                                  0.01533061      -0.02691367      -0.13122152
  ----------------------------------------------------------------------
  | Atom    36: Au
  |   Hirshfeld charge        :     -0.00988123
  |   Free atom volume        :    128.21582128
  |   Hirshfeld volume        :    133.66979147
  |   Hirshfeld dipole vector :      0.02872556      -0.00553639       0.04317722
  |   Hirshfeld dipole moment :      0.05215440
  |   Hirshfeld second moments:     -0.13981152      -0.00057218       0.02963380
  |                                 -0.00057218      -0.16394675      -0.00708890
  |                                  0.02963380      -0.00708890      -0.11332692
  ----------------------------------------------------------------------
  | Atom    37: Au
  |   Hirshfeld charge        :     -0.01052200
  |   Free atom volume        :    128.21582128
  |   Hirshfeld volume        :    133.70571490
  |   Hirshfeld dipole vector :      0.02493899       0.02682037       0.03639720
  |   Hirshfeld dipole moment :      0.05163373
  |   Hirshfeld second moments:     -0.14403205       0.01427266       0.02268886
  |                                  0.01427266      -0.14556900       0.02787458
  |                                  0.02268886       0.02787458      -0.13035483
  ----------------------------------------------------------------------
  | Atom    38: Au
  |   Hirshfeld charge        :     -0.01086052
  |   Free atom volume        :    128.21582128
  |   Hirshfeld volume        :    133.71594806
  |   Hirshfeld dipole vector :      0.04324916      -0.02527699      -0.01099403
  |   Hirshfeld dipole moment :      0.05128630
  |   Hirshfeld second moments:     -0.11479533      -0.02808166      -0.01471123
  |                                 -0.02808166      -0.14528422       0.00301836
  |                                 -0.01471123       0.00301836      -0.16054258
  ----------------------------------------------------------------------
  | Atom    39: Au
  |   Hirshfeld charge        :     -0.01091541
  |   Free atom volume        :    128.21582128
  |   Hirshfeld volume        :    133.78554895
  |   Hirshfeld dipole vector :      0.03735940       0.02483630      -0.02209299
  |   Hirshfeld dipole moment :      0.05000666
  |   Hirshfeld second moments:     -0.12512838       0.02285402      -0.02456088
  |                                  0.02285402      -0.14516776      -0.01198771
  |                                 -0.02456088      -0.01198771      -0.15369528
  ----------------------------------------------------------------------
  | Atom    40: Au
  |   Hirshfeld charge        :     -0.00547165
  |   Free atom volume        :    128.21582128
  |   Hirshfeld volume        :    133.57871743
  |   Hirshfeld dipole vector :      0.00022474       0.01307846       0.05318156
  |   Hirshfeld dipole moment :      0.05476655
  |   Hirshfeld second moments:     -0.16574218      -0.00092037       0.00068372
  |                                 -0.00092037      -0.15076472       0.01466965
  |                                  0.00068372       0.01466965      -0.09198396
  ----------------------------------------------------------------------
  | Atom    41: Au
  |   Hirshfeld charge        :     -0.01155933
  |   Free atom volume        :    128.21582128
  |   Hirshfeld volume        :    133.73578423
  |   Hirshfeld dipole vector :      0.03835247       0.03224028       0.00832055
  |   Hirshfeld dipole moment :      0.05078956
  |   Hirshfeld second moments:     -0.12427758       0.03138313       0.01175293
  |                                  0.03138313      -0.13562311       0.00355899
  |                                  0.01175293       0.00355899      -0.16220896
  ----------------------------------------------------------------------
  | Atom    42: Au
  |   Hirshfeld charge        :     -0.00917645
  |   Free atom volume        :    128.21582128
  |   Hirshfeld volume        :    133.66930321
  |   Hirshfeld dipole vector :      0.04351740      -0.01912494       0.02196050
  |   Hirshfeld dipole moment :      0.05236212
  |   Hirshfeld second moments:     -0.11344433      -0.01946943       0.02526657
  |                                 -0.01946943      -0.14946153      -0.00829989
  |                                  0.02526657      -0.00829989      -0.15375790
  ----------------------------------------------------------------------
  | Atom    43: Cu
  |   Hirshfeld charge        :     -0.02431960
  |   Free atom volume        :     76.60718365
  |   Hirshfeld volume        :     83.00128044
  |   Hirshfeld dipole vector :      0.00003971       0.00000763      -0.00002513
  |   Hirshfeld dipole moment :      0.00004761
  |   Hirshfeld second moments:     -0.17585453       0.00001975      -0.00000125
  |                                  0.00001975      -0.17587135       0.00005779
  |                                 -0.00000125       0.00005779      -0.17563330
  ----------------------------------------------------------------------
  | Atom    44: Cu
  |   Hirshfeld charge        :      0.03571060
  |   Free atom volume        :     76.60718365
  |   Hirshfeld volume        :     81.31510692
  |   Hirshfeld dipole vector :     -0.05547659      -0.01318712      -0.03237692
  |   Hirshfeld dipole moment :      0.06557299
  |   Hirshfeld second moments:     -0.12399443      -0.00396552      -0.01062610
  |                                 -0.00396552      -0.10679187      -0.00246404
  |                                 -0.01062610      -0.00246404      -0.11177343
  ----------------------------------------------------------------------
  | Atom    45: Cu
  |   Hirshfeld charge        :      0.03554785
  |   Free atom volume        :     76.60718365
  |   Hirshfeld volume        :     81.32895089
  |   Hirshfeld dipole vector :     -0.04070879       0.04872490      -0.01059112
  |   Hirshfeld dipole moment :      0.06436997
  |   Hirshfeld second moments:     -0.11554650       0.01044530      -0.00233835
  |                                  0.01044530      -0.12298928       0.00354924
  |                                 -0.00233835       0.00354924      -0.10606392
  ----------------------------------------------------------------------
  | Atom    46: Cu
  |   Hirshfeld charge        :      0.03563505
  |   Free atom volume        :     76.60718365
  |   Hirshfeld volume        :     81.31161879
  |   Hirshfeld dipole vector :     -0.02975897      -0.05677989       0.01332150
  |   Hirshfeld dipole moment :      0.06547530
  |   Hirshfeld second moments:     -0.11086601      -0.00986469       0.00232859
  |                                 -0.00986469      -0.12489603       0.00442567
  |                                  0.00232859       0.00442567      -0.10656315
  ----------------------------------------------------------------------
  | Atom    47: Cu
  |   Hirshfeld charge        :      0.03585964
  |   Free atom volume        :     76.60718365
  |   Hirshfeld volume        :     81.31148958
  |   Hirshfeld dipole vector :     -0.05505929       0.00282660       0.03552351
  |   Hirshfeld dipole moment :      0.06558532
  |   Hirshfeld second moments:     -0.12365416       0.00102712       0.01142974
  |                                  0.00102712      -0.10560578      -0.00058044
  |                                  0.01142974      -0.00058044      -0.11298268
  ----------------------------------------------------------------------
  | Atom    48: Cu
  |   Hirshfeld charge        :      0.03596078
  |   Free atom volume        :     76.60718365
  |   Hirshfeld volume        :     81.30914130
  |   Hirshfeld dipole vector :      0.00270111      -0.04571326      -0.04684251
  |   Hirshfeld dipole moment :      0.06550739
  |   Hirshfeld second moments:     -0.10560320       0.00076153       0.00077014
  |                                  0.00076153      -0.11789616      -0.01259443
  |                                  0.00077014      -0.01259443      -0.11839896
  ----------------------------------------------------------------------
  | Atom    49: Cu
  |   Hirshfeld charge        :      0.03560183
  |   Free atom volume        :     76.60718365
  |   Hirshfeld volume        :     81.31995717
  |   Hirshfeld dipole vector :     -0.00350276       0.02132188      -0.06185407
  |   Hirshfeld dipole moment :      0.06551960
  |   Hirshfeld second moments:     -0.10557261       0.00043394      -0.00126921
  |                                  0.00043394      -0.10824747       0.00758561
  |                                 -0.00126921       0.00758561      -0.12862799
  ----------------------------------------------------------------------
  | Atom    50: Cu
  |   Hirshfeld charge        :      0.03586739
  |   Free atom volume        :     76.60718365
  |   Hirshfeld volume        :     81.31185962
  |   Hirshfeld dipole vector :      0.05554913       0.01242836       0.03249588
  |   Hirshfeld dipole moment :      0.06554504
  |   Hirshfeld second moments:     -0.12390136      -0.00422895      -0.01052329
  |                                 -0.00422895      -0.10652611      -0.00238911
  |                                 -0.01052329      -0.00238911      -0.11181465
  ----------------------------------------------------------------------
  | Atom    51: Cu
  |   Hirshfeld charge        :      0.03565372
  |   Free atom volume        :     76.60718365
  |   Hirshfeld volume        :     81.30869529
  |   Hirshfeld dipole vector :      0.03976643      -0.05081120       0.01145368
  |   Hirshfeld dipole moment :      0.06553117
  |   Hirshfeld second moments:     -0.11487465       0.01178056      -0.00269114
  |                                  0.01178056      -0.12103158       0.00342729
  |                                 -0.00269114       0.00342729      -0.10627932
  ----------------------------------------------------------------------
  | Atom    52: Cu
  |   Hirshfeld charge        :      0.03544936
  |   Free atom volume        :     76.60718365
  |   Hirshfeld volume        :     81.33426851
  |   Hirshfeld dipole vector :      0.03107769       0.05497977      -0.01256615
  |   Hirshfeld dipole moment :      0.06439337
  |   Hirshfeld second moments:     -0.11209856      -0.00837386       0.00202880
  |                                 -0.00837386      -0.12633706       0.00440466
  |                                  0.00202880       0.00440466      -0.10636471
  ----------------------------------------------------------------------
  | Atom    53: Cu
  |   Hirshfeld charge        :      0.03616117
  |   Free atom volume        :     76.60718365
  |   Hirshfeld volume        :     81.30811251
  |   Hirshfeld dipole vector :     -0.00279198       0.04641972       0.04601692
  |   Hirshfeld dipole moment :      0.06542280
  |   Hirshfeld second moments:     -0.10533382       0.00078054       0.00074913
  |                                  0.00078054      -0.11788701      -0.01253804
  |                                  0.00074913      -0.01253804      -0.11827029
  ----------------------------------------------------------------------
  | Atom    54: Cu
  |   Hirshfeld charge        :      0.03571499
  |   Free atom volume        :     76.60718365
  |   Hirshfeld volume        :     81.31421450
  |   Hirshfeld dipole vector :      0.05509475      -0.00357996      -0.03534892
  |   Hirshfeld dipole moment :      0.06555756
  |   Hirshfeld second moments:     -0.12362819       0.00080326       0.01151368
  |                                  0.00080326      -0.10594236      -0.00062811
  |                                  0.01151368      -0.00062811      -0.11292921
  ----------------------------------------------------------------------
  | Atom    55: Cu
  |   Hirshfeld charge        :      0.03595344
  |   Free atom volume        :     76.60718365
  |   Hirshfeld volume        :     81.30771970
  |   Hirshfeld dipole vector :      0.00350763      -0.02140496       0.06177018
  |   Hirshfeld dipole moment :      0.06546778
  |   Hirshfeld second moments:     -0.10548538       0.00045185      -0.00129548
  |                                  0.00045185      -0.10827167       0.00772388
  |                                 -0.00129548       0.00772388      -0.12816980
  ----------------------------------------------------------------------
  | Atom    56: O
  |   Hirshfeld charge        :     -0.26204543
  |   Free atom volume        :     23.74229847
  |   Hirshfeld volume        :     21.97812818
  |   Hirshfeld dipole vector :      0.00937743      -0.01792491      -0.03873405
  |   Hirshfeld dipole moment :      0.04369857
  |   Hirshfeld second moments:      0.07239885       0.01956882       0.00579902
  |                                  0.01956882      -0.02743482       0.01369170
  |                                  0.00579902       0.01369170       0.01067493
  ----------------------------------------------------------------------
  | Atom    57: H
  |   Hirshfeld charge        :      0.13089359
  |   Free atom volume        :     10.31539447
  |   Hirshfeld volume        :      7.62873074
  |   Hirshfeld dipole vector :      0.09021573       0.01043993      -0.05301381
  |   Hirshfeld dipole moment :      0.10515862
  |   Hirshfeld second moments:      0.08980724       0.02341675       0.00346606
  |                                  0.02341675       0.06744858       0.00672034
  |                                  0.00346606       0.00672034       0.09425202
  ----------------------------------------------------------------------
  | Atom    58: H
  |   Hirshfeld charge        :      0.12810304
  |   Free atom volume        :     10.31539447
  |   Hirshfeld volume        :      7.75716695
  |   Hirshfeld dipole vector :     -0.06920848      -0.02103389      -0.07260524
  |   Hirshfeld dipole moment :      0.10248785
  |   Hirshfeld second moments:      0.10129536      -0.00978253      -0.00284545
  |                                 -0.00978253       0.05112904       0.00039403
  |                                 -0.00284545       0.00039403       0.08943632
  ----------------------------------------------------------------------


------------------------------------------------------------------------------
  Final output of selected total energy values:

  The following output summarizes some interesting total energy values
  at the end of a run (AFTER all relaxation, molecular dynamics, etc.).

  | Total energy of the DFT / Hartree-Fock s.c.f. calculation      :      -23087739.647535630 eV
  | Final zero-broadening corrected energy (caution - metals only) :      -23087739.751803771 eV
  | For reference only, the value of 1 Hartree used in FHI-aims is :             27.211384500 eV

  Before relying on these values, please be sure to understand exactly which
  total energy value is referred to by a given number. Different objects may
  all carry the same name 'total energy'. Definitions:

  Total energy of the DFT / Hartree-Fock s.c.f. calculation:
  | Note that this energy does not include ANY quantities calculated after the
  | s.c.f. cycle, in particular not ANY RPA, MP2, etc. many-body perturbation terms.

  Final zero-broadening corrected energy:
  | For metallic systems only, a broadening of the occupation numbers at the Fermi
  | level can be extrapolated back to zero broadening by an electron-gas inspired
  | formula. For all systems that are not real metals, this value can be
  | meaningless and should be avoided.

------------------------------------------------------------------------------

------------------------------------------------------------
          Leaving FHI-aims.
          Date     :  20131118, Time     :  172705.667

          Computational steps:
          | Number of self-consistency cycles          :         1115
          | Number of relaxation steps                 :           67

          Detailed time accounting                     :  max(cpu_time)    wall_clock(cpu1)
          | Total time                                 :    18065.541 s       18109.569 s
          | Preparation time                           :        0.660 s           0.658 s
          | Grid partitioning                          :       81.905 s          81.433 s
          | Preloading free-atom quantities on grid    :       22.953 s          22.953 s
          | Free-atom superposition energy             :        2.296 s           2.260 s
          | Total time for integrations                :     3429.203 s        3432.858 s
          | Total time for solution of K.-S. equations :     1209.897 s        1209.697 s
          | Total time for EV reorthonormalization     :       48.963 s          48.913 s
          | Total time for density & force components  :    12510.343 s       12491.861 s
          | Total time for mixing                      :        7.305 s           5.910 s
          | Total time for Hartree multipole update    :       23.122 s          21.240 s
          | Total time for Hartree multipole sum       :      541.378 s         539.831 s
          | Total time for total energy evaluation     :        4.281 s           0.850 s
          | Total time for scaled ZORA corrections     :        0.000 s           0.000 s

          Have a nice day.
------------------------------------------------------------
Application 1850604 resources: utime ~2593019s, stime ~7856s, Rss ~477860, inblocks ~1228410, outblocks ~543441
