ATOMS
Li     10.38253222     7.62293086     0.06667127
Li     11.68303453     5.42419318     0.06755576
Li     11.29363881     6.67869186     4.88515925
Li      1.27561078     0.75292304     2.38838709
Li      4.61562765     0.75344975     2.67747530
Li      7.15921069     0.54025993     2.49895244
Li      2.88450663     3.68229900     2.67679189
Li      3.92303772     6.01455542     2.50016781
Li     10.40934052     6.15611881     2.69124088
Li      4.11360042     4.38754129     4.83088540
Li      5.82787415     1.49038626     4.83153672
Li      8.75474825     5.17595549     0.05655525
Mo      2.84682635     1.68264237     4.97793819
Mo      2.87417095     0.20340848     0.07821878
Mo      1.56479207     2.41883033     0.07845565
Mo      5.87155076     3.47102143     2.50263758
Mo      8.52763009     3.54905162     2.40321940
Mo      7.21899860     5.76122042     2.40266414
O       4.35975473     2.57787565     3.74593969
O       5.79659681     5.18426956     3.71015359
O       2.93070732    -0.03268167     3.76808630
O       7.33650948     2.58132844     3.71099280
O       8.63525169     5.10642523     3.64312010
O       5.86686270     0.02515651     3.76876431
O       1.38450570     2.58291100     3.76822281
O       2.84853449     5.12906765     3.76858998
O       0.08875510     0.05216503     3.83809849
O       7.17519076     4.24216044     1.00616568
O       8.44332449     6.80245077     1.19343504
O       5.69307296     1.87876532     1.24690768
O      10.03057247     4.11985210     1.19390667
O      11.52963126     6.81800673     1.28174566
O       8.80284199     1.84177019     1.27835600
O       4.38984040     4.08116213     1.24614765
O       5.85581166     6.82503519     1.27780670
O       2.90084059     1.71345919     1.46519577
