ANIMSTEPS 501
CRYSTAL
PRIMVEC
     5.8864581158    0.0000000000    0.0000000000
     2.9432300579    5.0978226554    0.0000000000
     1.4719105272    0.8498081082    4.7903374254
 PRIMCOORD 1
14 1
   Li       5.8867857139     3.3987375358     4.7903633252       0.0000027000    -0.0000000700     0.0000035000
   Li       8.8300302717     3.3987375358     4.7903633252      -0.0000009900     0.0000011600     0.0000038200
   Cr       8.8301784708     5.0981063538     7.1855449378      -0.0006781500     0.0401631400    -0.0092240800
   Cr      10.3018012997     7.6470310814     7.1855449378       0.0006915100    -0.0401679000     0.0092168400
   Cr      11.7734231286     5.0981063538     7.1855449378      -0.0006916100     0.0401678500    -0.0092266600
   Cr      13.2450459575     7.6470310814     7.1855449378       0.0006782300    -0.0401637000     0.0092143600
    O       7.3585803418     4.2484787445     6.1122570160      -0.0024548800    -0.0271745600     0.0683971800
    O       8.8302031707     6.7974034721     6.1122570160      -0.0039406100     0.0230982800     0.0940958300
    O      10.3018249996     4.2484787445     6.1122570160      -0.0024724800    -0.0271776800     0.0683992300
    O      11.7734478285     6.7974034721     6.1122570160      -0.0039399100     0.0231054900     0.0940909100
    O      10.3017766999     5.9477339631     8.2588328597       0.0039352600    -0.0231001400    -0.0940906200
    O      11.7733995288     8.4966586907     8.2588328597       0.0024681300     0.0271765400    -0.0683994300
    O      13.2450212577     5.9477339631     8.2588328597       0.0039439300    -0.0230973500    -0.0940896500
    O      14.7166440866     8.4966586907     8.2588328597       0.0024588900     0.0271689300    -0.0683912400
 PRIMCOORD 2
14 1
   Li       5.8791678220     3.3968722720     4.7830329400       0.0001759000     0.0008398100     0.0006742700
   Li       8.7942578550     3.3973262720     4.7864943230       0.0018488300    -0.0000278100     0.0003777600
   Cr       8.8348182290     5.0964441270     7.1826185290      -0.0022701800     0.0344212700    -0.0099441800
   Cr      10.2930126980     7.6409072350     7.1862520360       0.0074527900    -0.0312659900     0.0111505200
   Cr      11.7733221190     5.0984198530     7.1872570640       0.0007087900     0.0373380700    -0.0098116200
   Cr      13.2459329570     7.6469776450     7.1836618490      -0.0021192300    -0.0342814000     0.0138568700
    O       7.3556820700     4.2541671950     6.0995366140      -0.0022127600    -0.0282477000     0.0741330600
    O       8.8522297670     6.7903538380     6.1080142520      -0.0095168900     0.0247178000     0.0945771000
    O      10.3093668990     4.2451964290     6.1160498510      -0.0036617300    -0.0253287600     0.0673505600
    O      11.7702856010     6.8072837630     6.1173655220      -0.0032465500     0.0197275600     0.0928919900
    O      10.3038268460     5.9306546800     8.2576904310       0.0028564300    -0.0156041200    -0.0928432800
    O      11.7880686380     8.5161291970     8.2752883050      -0.0026370500     0.0204379200    -0.0757135800
    O      13.2383867550     5.9430976590     8.2476843130       0.0066425900    -0.0204865500    -0.0917358900
    O      14.7129108490     8.5196082780     8.2754260250       0.0059790600     0.0177599000    -0.0749636000
 PRIMCOORD 3
14 1
   Li       5.8715605800     3.3950686720     4.7757512130       0.0004208900     0.0017599600     0.0014001900
   Li       8.7586206470     3.3959113560     4.7826516570       0.0041716600     0.0001877600     0.0010947300
   Cr       8.8394311860     5.0951255270     7.1795889840      -0.0038955800     0.0280637300    -0.0108080400
   Cr      10.2842943540     7.6344657660     7.1870679880       0.0134955100    -0.0224223500     0.0128683100
   Cr      11.7732229630     5.0991062930     7.1888673850       0.0020565900     0.0336562000    -0.0104973000
   Cr      13.2467927380     7.6465762830     7.1819148110      -0.0046681600    -0.0277459500     0.0188656100
    O       7.3527082240     4.2589312180     6.0892346150      -0.0020971800    -0.0288325300     0.0784955100
    O       8.8739415890     6.7841084770     6.1068575840      -0.0150537700     0.0256927700     0.0931223600
    O      10.3167846200     4.2410850180     6.1220395740      -0.0046665400    -0.0230874400     0.0653195800
    O      11.7670121040     6.8178053480     6.1255050890      -0.0027981900     0.0161123400     0.0903099800
    O      10.3059657130     5.9130630710     8.2535121260       0.0017963200    -0.0075818600    -0.0903374500
    O      11.8026464040     8.5362633640     8.2892673220      -0.0076750200     0.0133529400    -0.0816835300
    O      13.2319632450     5.9377895700     8.2335360560       0.0094930400    -0.0173919400    -0.0880585300
    O      14.7093662840     8.5431340650     8.2895672540       0.0094204300     0.0082363700    -0.0800914200
 PRIMCOORD 4
14 1
   Li       5.8639850240     3.3933975660     4.7685748950       0.0007558500     0.0027190100     0.0021799600
   Li       8.7232974910     3.3945105750     4.7788914040       0.0070171300     0.0006644000     0.0022476900
   Cr       8.8440049940     5.0940889530     7.1764508230      -0.0056922300     0.0212743800    -0.0118167500
   Cr      10.2757116330     7.6277989650     7.1880132590       0.0192011400    -0.0134562300     0.0146549600
   Cr      11.7731444740     5.1001309590     7.1903722130       0.0033681400     0.0293281200    -0.0115201200
   Cr      13.2476056070     7.6458960890     7.1803573620      -0.0067903500    -0.0208885300     0.0240352300
    O       7.3496658850     4.2627535850     6.0814962410      -0.0020354000    -0.0290531800     0.0814637000
    O       8.8951617620     6.7787022290     6.1087422470      -0.0208567800     0.0261294600     0.0897366900
    O      10.3240499330     4.2362195820     6.1301626050      -0.0055336800    -0.0205463800     0.0623402900
    O      11.7636472190     6.8288531540     6.1365941370      -0.0025196900     0.0122829600     0.0863140400
    O      10.3081632460     5.8952238430     8.2463834430       0.0007240000     0.0009667500    -0.0864623300
    O      11.8169735070     8.5568336320     8.3005785930      -0.0129080800     0.0057786400    -0.0863541700
    O      13.2258497730     5.9319134700     8.2165118490       0.0125923900    -0.0137180700    -0.0831039500
    O      14.7061293850     8.5669288470     8.3010927370       0.0126775600    -0.0014813200    -0.0837152200
 PRIMCOORD 5
14 1
   Li       5.8564663700     3.3919311530     4.7615626890       0.0011888900     0.0036622100     0.0029975800
   Li       8.6885025980     3.3931598120     4.7753003620       0.0103914100     0.0014428200     0.0039218300
   Cr       8.8485215980     5.0932661750     7.1731939110      -0.0077583000     0.0142572800    -0.0129993200
   Cr      10.2673218720     7.6209969360     7.1891058040       0.0248544100    -0.0041857800     0.0168938900
   Cr      11.7730998340     5.1014503570     7.1917612710       0.0046383700     0.0245420200    -0.0130818200
   Cr      13.2483502370     7.6450059770     7.1790414550      -0.0083118500    -0.0139847600     0.0292337200
    O       7.3465570710     4.2656270880     6.0764184340      -0.0019289700    -0.0290724600     0.0828920200
    O       8.9157007620     6.7741493560     6.1135576680      -0.0271315900     0.0260733900     0.0842763500
    O      10.3311345190     4.2306831110     6.1403216390      -0.0063640700    -0.0177708200     0.0582264400
    O      11.7602000420     6.8403021160     6.1505021590      -0.0024043600     0.0083012400     0.0806958700
    O      10.3103844260     5.8774161880     8.2364309410      -0.0004293100     0.0100507300    -0.0809884800
    O      11.8308790390     8.5775926280     8.3090695780      -0.0185596800    -0.0023944600    -0.0897031800
    O      13.2201475620     5.9255893440     8.1967735070       0.0160938600    -0.0094157200    -0.0767174100
    O      14.7033065290     8.5906752500     8.3098841190       0.0157212000    -0.0115056900    -0.0856475000
 PRIMCOORD 6
14 1
   Li       5.8490372180     3.3907404380     4.7547761470       0.0017030500     0.0045549500     0.0038339000
   Li       8.6544899920     3.3919176670     4.7720045630       0.0142925400     0.0025902900     0.0062029000
   Cr       8.8529602360     5.0925866750     7.1698063620      -0.0101162600     0.0071685900    -0.0143836500
   Cr      10.2591818860     7.6141528420     7.1903681240       0.0307592200     0.0055313700     0.0199699100
   Cr      11.7731018060     5.1030163890     7.1930188640       0.0058196500     0.0195194300    -0.0153979700
   Cr      13.2490113370     7.6439753250     7.1780193300      -0.0092085800    -0.0072370700     0.0343877200
    O       7.3433852580     4.2675510990     6.0740478400      -0.0016627400    -0.0289963300     0.0825594400
    O       8.9353536580     6.7704480290     6.1211255140      -0.0341338600     0.0255037600     0.0764743300
    O      10.3380112580     4.2245662540     6.1523823210      -0.0072975000    -0.0149143600     0.0526462000
    O      11.7566743400     6.8520221920     6.1670456710      -0.0023521300     0.0042758800     0.0731816100
    O      10.3125915840     5.8599367850     8.2238333940      -0.0017701700     0.0195945800    -0.0735997200
    O      11.8441784200     8.5982734220     8.3146309010      -0.0246342800    -0.0112416000    -0.0916690800
    O      13.2149709690     5.9189577040     8.1745296110       0.0201613900    -0.0044138100    -0.0685910100
    O      14.7009971200     8.6140458830     8.3158782960       0.0184396500    -0.0219356700    -0.0856145900
 PRIMCOORD 7
14 1
   Li       5.8417362750     3.3898926300     4.7482782290       0.0022605500     0.0053798900     0.0046881400
   Li       8.6215533580     3.3908705240     4.7691757310       0.0186572700     0.0040998200     0.0091212600
   Cr       8.8572972100     5.0919792160     7.1662742660      -0.0128411700     0.0001482900    -0.0160992900
   Cr      10.2513510130     7.6073643350     7.1918311310       0.0370810400     0.0160016500     0.0241542500
   Cr      11.7731622630     5.1047785800     7.1941217150       0.0069052500     0.0142682900    -0.0187080000
   Cr      13.2495798960     7.6428719450     7.1773427830      -0.0094325100    -0.0007021700     0.0394499400
    O       7.3401591400     4.2685281040     6.0743735980      -0.0012557300    -0.0289032800     0.0803704300
    O       8.9538917580     6.7675796420     6.1311909760      -0.0419390700     0.0243687100     0.0660388500
    O      10.3446496640     4.2179623000     6.1661624030      -0.0083534700    -0.0120168600     0.0451454200
    O      11.7530718180     6.8638819160     6.1859792590      -0.0023695800     0.0001993800     0.0635197900
    O      10.3147409290     5.8430973320     8.2088321150      -0.0032767400     0.0294655900    -0.0639709000
    O      11.8566732570     8.6185870700     8.3171983540      -0.0310863800    -0.0207513400    -0.0920526500
    O      13.2104528370     5.9121819120     8.1500455660       0.0247950900     0.0011312100    -0.0582444300
    O      14.6992899410     8.6367001070     8.3190763400       0.0208554400    -0.0326891800    -0.0834128100
 PRIMCOORD 8
14 1
   Li       5.8346055110     3.3894498300     4.7421332440       0.0028218200     0.0061342700     0.0055360100
   Li       8.5900212810     3.3901320230     4.7670335670       0.0232944300     0.0058835800     0.0125511700
   Cr       8.8615051380     5.0913732460     7.1625803800      -0.0158763100    -0.0066215000    -0.0182083600
   Cr      10.2438927840     7.6007366370     7.1935368750       0.0438700600     0.0272496000     0.0296701200
   Cr      11.7732921130     5.1066841610     7.1950365610       0.0078099500     0.0089411400    -0.0230816000
   Cr      13.2500536630     7.6417615090     7.1770626880      -0.0090033000     0.0056072300     0.0444358500
    O       7.3368920110     4.2685611410     6.0773242150      -0.0006332400    -0.0288135300     0.0762602900
    O       8.9710601480     6.7655071250     6.1434132350      -0.0505433400     0.0225364900     0.0528946100
    O      10.3510152490     4.2109658820     6.1814169130      -0.0096151700    -0.0091081100     0.0354288100
    O      11.7493919070     6.8757481520     6.2069873730      -0.0024400000    -0.0038506500     0.0516921400
    O      10.3167832570     5.8272202110     8.1917415780      -0.0050028100     0.0394539600    -0.0520663200
    O      11.8681528290     8.6382229890     8.3167594120      -0.0376749000    -0.0307551800    -0.0907169500
    O      13.2067445020     5.9054430650     8.1236592850       0.0300046800     0.0070086000    -0.0454533200
    O      14.6982638910     8.6582867180     8.3195501620       0.0229881100    -0.0436659100    -0.0789424500
 PRIMCOORD 9
14 1
   Li       5.8276871800     3.3894688310     4.7364050220       0.0033439100     0.0068132900     0.0063694400
   Li       8.5602428570     3.3898364510     4.7658362800       0.0278744900     0.0077906500     0.0162276800
   Cr       8.8655535180     5.0907007350     7.1587035100      -0.0192750000    -0.0129420300    -0.0207693400
   Cr      10.2368754260     7.5943827820     7.1955407870       0.0509809700     0.0392654800     0.0364365200
   Cr      11.7735004500     5.1086795950     7.1957194490       0.0086219800     0.0036398300    -0.0284861700
   Cr      13.2504369520     7.6407074220     7.1772291480      -0.0078896400     0.0116018800     0.0493538300
    O       7.3336042010     4.2676531420     6.0827654580       0.0001427900    -0.0288073500     0.0703791300
    O       8.9865778170     6.7641706390     6.1573630060      -0.0597529800     0.0200220600     0.0373614100
    O      10.3570668080     4.2036719980     6.1978285110      -0.0109982800    -0.0061022800     0.0235857300
    O      11.7456323070     6.8874886280     6.2296837280      -0.0026191600    -0.0078796800     0.0380277200
    O      10.3186621960     5.8126316380     8.1729505790      -0.0068699000     0.0493543800    -0.0381069800
    O      11.8784019560     8.6568544590     8.3133576980      -0.0440918100    -0.0410303200    -0.0874820600
    O      13.2040161040     5.8989331150     8.0957885200       0.0355833500     0.0129015300    -0.0304839600
    O      14.6979886220     8.6784472220     8.3174457620       0.0249492800    -0.0546274500    -0.0724129500
 PRIMCOORD 10
14 1
   Li       5.8210205850     3.3900007500     4.7311563030       0.0038000400     0.0073853600     0.0071819800
   Li       8.5325628830     3.3901273760     4.7658606470       0.0319776100     0.0095912000     0.0197387300
   Cr       8.8694081940     5.0898981620     7.1546179190      -0.0229730500    -0.0186282700    -0.0238116000
   Cr      10.2303703990     7.5884235240     7.1979108680       0.0582122200     0.0518079000     0.0441323900
   Cr      11.7737954330     5.1107116070     7.1961160670       0.0093678900    -0.0013997500    -0.0347436000
   Cr      13.2507409540     7.6397699270     7.1778915880      -0.0061586000     0.0171254900     0.0540729000
    O       7.3303210540     4.2658043090     6.0905052500       0.0010813700    -0.0290316000     0.0629324700
    O       9.0001439820     6.7634880640     6.1725329840      -0.0692663500     0.0169858600     0.0201714200
    O      10.3627591690     4.1961788150     6.2150104080      -0.0124701300    -0.0029238200     0.0100686100
    O      11.7417871660     6.8989717570     6.2536220500      -0.0029302100    -0.0117654600     0.0230892900
    O      10.3203167670     5.7996549550     8.1529150240      -0.0088613400     0.0589636800    -0.0225376600
    O      11.8872110650     8.6741458980     8.3070988610      -0.0499075000    -0.0512784100    -0.0821790900
    O      13.2024498430     5.8928445230     8.0669221630       0.0413144500     0.0185704600    -0.0139877900
    O      14.6985281840     8.6968236190     8.3129763890       0.0268136100    -0.0654026400    -0.0641280600
 PRIMCOORD 11
14 1
   Li       5.8146400650     3.3910886540     4.7264482590       0.0041657200     0.0078207300     0.0079517800
   Li       8.5072902480     3.3911403450     4.7673709860       0.0351860200     0.0110046600     0.0225671600
   Cr       8.8730320030     5.0889083860     7.1502930350      -0.0268839300    -0.0234459400    -0.0272714700
   Cr      10.2244503730     7.5829849070     7.2007244540       0.0652208000     0.0644438200     0.0522603700
   Cr      11.7741845580     5.1127295530     7.1961635300       0.0101325200    -0.0058582000    -0.0415082100
   Cr      13.2509830660     7.6390045350     7.1790974310      -0.0039202100     0.0218903500     0.0584125300
    O       7.3270732240     4.2630073170     6.1003003850       0.0021748100    -0.0295773100     0.0541095500
    O       9.0114479410     6.7633602400     6.1883617500      -0.0786966200     0.0137661900     0.0022159300
    O      10.3680442600     4.1885901430     6.2325211410      -0.0139614200     0.0004957800    -0.0046104800
    O      11.7378463260     6.9100706320     6.2783144580      -0.0032939800    -0.0153883100     0.0074548800
    O      10.3216819310     5.7886039980     8.1321434000      -0.0109112900     0.0679813500    -0.0058916000
    O      11.8943902190     8.6897626090     8.2981560950      -0.0546446600    -0.0611583300    -0.0745705700
    O      13.2022328910     5.8873624340     8.0375989720       0.0468566300     0.0238088200     0.0032914900
    O      14.6999434660     8.7130639960     8.3064126240       0.0285756200    -0.0757835900    -0.0544113400
 PRIMCOORD 12
14 1
   Li       5.8085731500     3.3927653190     4.7223388420       0.0044164700     0.0080987300     0.0086652500
   Li       8.4846664890     3.3929817690     4.7705802270       0.0371993800     0.0118078200     0.0242168600
   Cr       8.8763856430     5.0876829910     7.1456940870      -0.0308000900    -0.0271994700    -0.0310910500
   Cr      10.2191857820     7.5781939170     7.2040632300       0.0714678700     0.0766134600     0.0602566800
   Cr      11.7746755090     5.1146886260     7.1957938580       0.0109226900    -0.0095554800    -0.0483659300
   Cr      13.2511857820     7.6384591290     7.1808902890      -0.0012515900     0.0257188500     0.0621287200
    O       7.3238964220     4.2592443440     6.1118627130       0.0034377300    -0.0304106600     0.0441074900
    O       9.0201817060     6.7636820120     6.2042628880      -0.0875974000     0.0107832900    -0.0155588300
    O      10.3728733790     4.1810176620     6.2498812980      -0.0154270300     0.0041674700    -0.0199232400
    O      11.7337979060     6.9206669320     6.3032503380      -0.0034740400    -0.0186353400    -0.0084052500
    O      10.3226907370     5.7797732790     8.1111793590      -0.0129565900     0.0759581500     0.0112851400
    O      11.8997847050     8.7033819180     8.2867778890      -0.0578669900    -0.0702827000    -0.0644403600
    O      13.2035462550     5.8826579290     8.0083832800       0.0518237100     0.0284338400     0.0207189000
    O      14.7022920140     8.7268293180     8.2980718110       0.0301058800    -0.0854979600    -0.0435943900
 PRIMCOORD 13
14 1
   Li       5.8028387150     3.3950516730     4.7188817610       0.0045335700     0.0081961200     0.0093083300
   Li       8.4648431770     3.3957121090     4.7756125630       0.0378803800     0.0118623400     0.0243369800
   Cr       8.8794297590     5.0861842560     7.1407826910      -0.0345178000    -0.0297182700    -0.0351069600
   Cr      10.2146394040     7.5741728500     7.2080075520       0.0763295400     0.0877270100     0.0674775300
   Cr      11.7752762280     5.1165516730     7.1949381340       0.0117986800    -0.0123554800    -0.0548204200
   Cr      13.2513759200     7.6381721830     7.1833075060       0.0017206600     0.0284356000     0.0649798100
    O       7.3208318960     4.2544881740     6.1248655710       0.0048176200    -0.0314299600     0.0331665800
    O       9.0260545810     6.7643559620     6.2196558820      -0.0953426800     0.0085543700    -0.0322336600
    O      10.3771986580     4.1735812880     6.2665907710      -0.0167491900     0.0080682300    -0.0353597900
    O      11.7296360260     6.9306546110     6.3279117060      -0.0032217700    -0.0214906900    -0.0240657100
    O      10.3232763870     5.7734233180     8.0905838850      -0.0148276700     0.0824164500     0.0284217100
    O      11.9032892820     8.7147058270     8.2732950920      -0.0593483700    -0.0783424300    -0.0517267600
    O      13.2065521560     5.8788820600     7.9798442570       0.0556727400     0.0322363400     0.0377116800
    O      14.7056238060     8.7378023170     8.2883072260       0.0312542900    -0.0941596300    -0.0320893200
 PRIMCOORD 14
14 1
   Li       5.7974455770     3.3979550480     4.7161254310       0.0045147800     0.0080933200     0.0098846400
   Li       8.4478715770     3.3993354710     4.7824770380       0.0372922500     0.0111508200     0.0228099300
   Cr       8.8821269900     5.0843868680     7.1355184890      -0.0377703300    -0.0308661300    -0.0391274900
   Cr      10.2108600960     7.5710333920     7.2126299870       0.0791798200     0.0971448600     0.0732408000
   Cr      11.7759955170     5.1182905530     7.1935314950       0.0127285300    -0.0142261700    -0.0603547700
   Cr      13.2515833490     7.6381710000     7.1863777360       0.0048599400     0.0300125600     0.0667717500
    O       7.3179247100     4.2487055170     6.1389516330       0.0063238500    -0.0323838000     0.0215974200
    O       9.0288136110     6.7653092930     6.2339961400      -0.1012297900     0.0074566300    -0.0469111800
    O      10.3809769160     4.1664084190     6.2821454100      -0.0178792400     0.0121414800    -0.0503069300
    O      11.7253689240     6.9399404140     6.3517871010      -0.0022446400    -0.0240266600    -0.0391783900
    O      10.3233777720     5.7697650380     8.0709166510      -0.0164157600     0.0868193700     0.0448869800
    O      11.9048555700     8.7234711100     8.2581229240      -0.0590596500    -0.0850019300    -0.0367219700
    O      13.2113763020     5.8761590140     7.9525368790       0.0579021300     0.0350081000     0.0537565800
    O      14.7099763470     8.7457001080     8.2774946190       0.0317981100    -0.1013224500    -0.0203473800
 PRIMCOORD 15
14 1
   Li       5.7923923200     3.4014677050     4.7141132370       0.0043676100     0.0077750800     0.0103750400
   Li       8.4337074150     3.4037982890     4.7910586910       0.0356615200     0.0097624400     0.0197489700
   Cr       8.8844446500     5.0822792920     7.1298610760      -0.0403019400    -0.0305787500    -0.0428378100
   Cr      10.2078765030     7.5688701880     7.2179884530       0.0794388000     0.1042968600     0.0769744000
   Cr      11.7768427200     5.1198864680     7.1915183220       0.0136737900    -0.0152436700    -0.0643924900
   Cr      13.2518396180     7.6384714270     7.1901189860       0.0080541600     0.0305167800     0.0674457400
    O       7.3152240580     4.2418652200     6.1537430560       0.0078896900    -0.0329753300     0.0097423200
    O       9.0282665230     6.7665061550     6.2468043010      -0.1044815800     0.0077898800    -0.0588805400
    O      10.3841712470     4.1596320860     6.2960570490      -0.0187067000     0.0163213600    -0.0641807600
    O      11.7210285130     6.9484415180     6.3743829470      -0.0003731100    -0.0264072600    -0.0534454100
    O      10.3229430270     5.7689422370     8.0527154050      -0.0175479600     0.0887155300     0.0599824800
    O      11.9044929990     8.7294602700     8.2417514330      -0.0572000900    -0.0900096800    -0.0200311600
    O      13.2180915050     5.8745793160     7.9269851660       0.0579635900     0.0365157800     0.0684271900
    O      14.7153674000     8.7502887550     8.2660174760       0.0315622000    -0.1064790200    -0.0089279900
 PRIMCOORD 16
14 1
   Li       5.7876678660     3.4055656860     4.7128820980       0.0041096500     0.0072281100     0.0108139800
   Li       8.4222279260     3.4089960450     4.8011270880       0.0333163500     0.0078487300     0.0155296800
   Cr       8.8863572960     5.0798644160     7.1237731670      -0.0418997800    -0.0287535700    -0.0460158400
   Cr      10.2056912280     7.5677551110     7.2241204700       0.0767037200     0.1086182100     0.0780667000
   Cr      11.7778273380     5.1213291930     7.1888580400       0.0146326800    -0.0154389500    -0.0665323700
   Cr      13.2521768280     7.6390785310     7.1945380300       0.0111966300     0.0300098000     0.0668824300
    O       7.3127810800     4.2339479640     6.1688526590       0.0094536800    -0.0328809000    -0.0020135400
    O       9.0243071170     6.7679574300     6.2576894520      -0.1044307200     0.0096770100    -0.0675389700
    O      10.3867546260     4.1533888000     6.3078725750      -0.0191681700     0.0204827500    -0.0763753500
    O      11.7166759170     6.9560801730     6.3952332920       0.0024586600    -0.0288069800    -0.0665345400
    O      10.3219351730     5.7710168430     8.0364731580      -0.0181124000     0.0877695100     0.0730771500
    O      11.9022622990     8.7325097570     8.2247257340      -0.0540839100    -0.0931471500    -0.0024673800
    O      13.2266997700     5.8741922060     7.9036682520       0.0554384700     0.0365818600     0.0814059200
    O      14.7217892600     8.7513998490     8.2542487500       0.0303851500    -0.1091884200     0.0017021200
 PRIMCOORD 17
14 1
   Li       5.7832527950     3.4102078140     4.7124650570       0.0037594100     0.0064683200     0.0111635000
   Li       8.4132565600     3.4147846690     4.8123645910       0.0306060100     0.0056096800     0.0105570000
   Cr       8.8878488720     5.0771605820     7.1172228230      -0.0422817200    -0.0256534900    -0.0482379800
   Cr      10.2042767830     7.5677315880     7.2310370160       0.0710690300     0.1098598800     0.0763546500
   Cr      11.7789590070     5.1226167640     7.1855291440       0.0154471700    -0.0150177000    -0.0663893000
   Cr      13.2526265570     7.6399872180     7.1996292050       0.0141012800     0.0287996700     0.0651068000
    O       7.3106468550     4.2249568350     6.1838965010       0.0109442300    -0.0317758100    -0.0133420900
    O       9.0169370530     6.7697247510     6.2663688130      -0.1007158900     0.0129759900    -0.0727108600
    O      10.3887119820     4.1478144700     6.3171937180      -0.0192423500     0.0244821900    -0.0863501700
    O      11.7124036190     6.9627780060     6.4139106510       0.0061739500    -0.0313496700    -0.0781822100
    O      10.3203357770     5.7759579590     8.0226175750      -0.0180442500     0.0837469100     0.0835517000
    O      11.8982652450     8.7325171030     8.2076194520      -0.0500631200    -0.0941528100     0.0149110000
    O      13.2371186290     5.8749998410     7.8830100170       0.0501148700     0.0350599400     0.0924792500
    O      14.7292034840     8.7489449010     8.2425356140       0.0281313800    -0.1090531000     0.0110887100
 PRIMCOORD 18
14 1
   Li       5.7791207400     3.4153368900     4.7128884280       0.0033477400     0.0055020200     0.0114412900
   Li       8.4065892780     3.4209956020     4.8243968460       0.0278245300     0.0032070200     0.0052975600
   Cr       8.8889155400     5.0741989450     7.1101877140      -0.0414042800    -0.0213782900    -0.0492590200
   Cr      10.2035765440     7.5688120990     7.2387208840       0.0629031000     0.1079480000     0.0717213700
   Cr      11.7802459110     5.1237534160     7.1815330710       0.0161039700    -0.0140977800    -0.0639031800
   Cr      13.2532179970     7.6411853250     7.2053746690       0.0166782500     0.0269983000     0.0620495500
    O       7.3088700630     4.2149279220     6.1985045970       0.0122870300    -0.0294511800    -0.0239090600
    O       9.0062776560     6.7719158620     6.2726734710      -0.0933096900     0.0173579600    -0.0744013600
    O      10.3900408920     4.1430397180     6.3236947070      -0.0189418200     0.0280945200    -0.0936840100
    O      11.7083329600     6.9684519740     6.4300346160       0.0105535900    -0.0340598100    -0.0880950300
    O      10.3181470650     5.7836342090     8.0114907520      -0.0173650200     0.0766906200     0.0910243000
    O      11.8926331530     8.7294494620     8.1910001560      -0.0454734700    -0.0928547800     0.0311703700
    O      13.2491742160     5.8769525180     7.8653721090       0.0420626600     0.0319493200     0.1015560800
    O      14.7375364650     8.7429283310     8.2311846300       0.0247334100    -0.1059059100     0.0189911300
 PRIMCOORD 19
14 1
   Li       5.7752407110     3.4208801690     4.7141731220       0.0029003400     0.0043676100     0.0116298600
   Li       8.4020166830     3.4274479660     4.8368279130       0.0251926000     0.0007712100     0.0001087500
   Cr       8.8895661180     5.0710224670     7.1026575780      -0.0392340300    -0.0161780500    -0.0487552000
   Cr      10.2035084470     7.5709774280     7.2471255130       0.0531595900     0.1029592700     0.0644331900
   Cr      11.7816946520     5.1247483920     7.1768948050       0.0164428700    -0.0126884900    -0.0591991000
   Cr      13.2539770440     7.6426547510     7.2117436980       0.0187205300     0.0247728500     0.0576796000
    O       7.3074945590     4.2039371490     6.2123318340       0.0133904900    -0.0257198200    -0.0334584600
    O       8.9925708100     6.7746738760     6.2765482170      -0.0826246300     0.0221968500    -0.0730413700
    O      10.3907511710     4.1391825190     6.3271360200      -0.0182898300     0.0311323700    -0.0980798600
    O      11.7046069760     6.9730135640     6.4432814400       0.0152897600    -0.0369482000    -0.0960099800
    O      10.3153912190     5.7938151390     8.0033367380      -0.0160990200     0.0667754600     0.0952197800