# total energy = -9320.59536422 eV

ATOMS
C      16.07637003    17.81756317    13.06441657     0.27116322    -0.07487602    -0.36909532
C      14.89600375    17.07757933    13.69849523     0.19089069     0.07885856    -0.21381287
O      16.67059097    16.81693123    12.21635361    -1.68669725     2.33629720     1.83708380
H      15.77978953    18.67076748    12.44513874     0.00567888    -0.16493611     0.22055817
H      16.82295924    18.14037457    13.80476580    -0.22799824    -0.05119569    -0.13832989
O      15.27705347    15.69399934    13.57951012     0.97839272    -1.20048967    -0.98845608
H      13.95401550    17.23186469    13.15217609     0.27019603    -0.11283920     0.13537168
H      14.74879022    17.31061982    14.75856595     0.05280143    -0.16786713    -0.26067336
C      16.25132981    15.57770283    12.62303484     2.23133979     2.61078429    -2.19689560
O      16.90321549    14.80807813    11.98050203    -2.08576727    -3.25373623     1.97424948
