# total energy = -9321.06850607 eV

ATOMS
C      16.07637003    17.81756317    13.06441657     0.35997725    -0.07332972    -0.36686311
C      14.89600375    17.07757933    13.69849523    -0.27354344     0.46511757     0.29575408
O      16.67059097    16.81693123    12.21635361    -1.60029838    -0.80981179     1.66296354
H      15.77978953    18.67076748    12.44513874    -0.00773159    -0.16752416     0.21747248
H      16.82295924    18.14037457    13.80476580    -0.23430949    -0.04584834    -0.13276209
O      15.27705347    15.69399934    13.57951012    -3.63262018     1.85975342     3.41169803
H      13.95401550    17.23186469    13.15217609     0.27992730    -0.12815853     0.14864054
H      14.74879022    17.31061982    14.75856595     0.01689624    -0.09984247    -0.28522291
C      16.15390218    15.58933248    12.71868237     5.12972715    -1.30993894    -5.01055618
O      16.57801584    14.55306718    12.29867359    -0.03802485     0.30958296     0.05887563
