# total energy = -9319.88534690 eV

ATOMS
C      16.07637003    17.81756317    13.06441657     0.66984549    -1.95866987    -0.40542725
C      14.89600375    17.07757933    13.69849523    -1.48201029     0.31658174     0.83215307
O      16.67059097    16.81693123    12.21635361    -1.61728764    -3.09837851     1.34315396
H      15.77978953    18.67076748    12.44513874    -0.17177583    -0.21152813     0.17406638
H      16.82295924    18.14037457    13.80476580    -0.24353295    -0.04474148    -0.06941780
O      15.04902299    15.64571592    13.69700415     2.61812842     0.61793884    -2.10101554
H      13.95401550    17.23186469    13.15217609     0.30260157     0.33310185     0.16233937
H      14.74879022    17.31061982    14.75856595    -0.03772473     0.28660901    -0.30342837
C      15.99359676    15.29649539    12.76780577    -0.12949648     0.35432093     0.13221535
O      16.24573782    14.17469397    12.43900188     0.09125245     3.40476562     0.23536083
