# total energy = -9321.27839686 eV

ATOMS
C      16.07637003    17.81756317    13.06441657     0.71886363     0.42826474    -1.21638002
C      14.89600375    17.07757933    13.69849523     0.56870571    -0.17842716     0.44066809
O      16.67059097    16.81693123    12.21635361    -0.74642971    -0.84034541     0.36105223
H      15.77978953    18.67076748    12.44513874    -0.35096524    -0.35586969    -0.14333220
H      16.94470136    18.23507950    13.59488848    -0.70415396    -0.44641766     1.02167837
O      15.27705347    15.69399934    13.57951012     0.47134355     0.51268336    -0.57077815
H      13.95401550    17.23186469    13.15217609     0.34346533     0.02956113     0.08641530
H      14.74879022    17.31061982    14.75856595     0.01840269    -0.09535836    -0.24981318
C      16.25132981    15.57770283    12.62303484     0.17406501    -0.22996527    -0.23355454
O      16.67544347    14.54143753    12.20302606    -0.49329701     1.17587431     0.50404410
