# total energy = -9321.21636906 eV

ATOMS
C      16.07637003    17.81756317    13.06441657     0.21572930    -0.46260848    -1.04102307
C      14.89600375    17.07757933    13.69849523     1.24585266     0.47170579    -0.31820164
O      16.67059097    16.81693123    12.21635361    -0.37510570    -0.46041742     0.48244446
H      15.77978953    18.67076748    12.44513874     0.10016759    -0.18676396     0.12753693
H      16.82295924    18.14037457    13.80476580    -0.20678840    -0.13507793    -0.19558635
O      15.27705347    15.69399934    13.57951012     0.33107156     0.68128844    -0.18716606
H      13.95401550    17.23186469    13.15217609     0.20263030     0.03588631     0.60001674
H      14.99092806    17.48915168    14.70910257    -1.24708255    -0.94031687     0.23221148
C      16.25132981    15.57770283    12.62303484     0.27000268    -0.21646940    -0.21466060
O      16.67544347    14.54143753    12.20302606    -0.53647745     1.21277352     0.51442813
