# total energy = -9314.20114707 eV

ATOMS
C      16.07637003    17.81756317    13.06441657    -0.42627779    -0.65869723    -1.90633045
C      14.89600375    17.07757933    13.69849523     0.52283388     4.97852691     2.74066604
O      16.67059097    16.81693123    12.21635361     0.38488024    -0.01609541     4.05630012
H      15.77978953    18.67076748    12.44513874    -0.31644572    -0.06715441     0.08910180
H      16.82295924    18.14037457    13.80476580    -0.32441817     0.39402295     0.17059578
O      15.53433213    16.18260988    14.62866538     4.94623990    -5.07983300    -2.75424290
H      13.95401550    17.23186469    13.15217609     0.29980576    -2.48415051    -0.22108630
H      14.74879022    17.31061982    14.75856595    -2.99880512     5.07608649    -0.58381455
C      16.85233005    16.04046596    14.28187896    -1.06375705    -5.53421000    -0.02199254
O      17.60935549    15.26085187    14.78111826    -1.02405594     3.39150422    -1.56919698
