# total energy = -9320.78288331 eV

ATOMS
C      16.07637003    17.81756317    13.06441657     0.27090226    -1.05255831    -0.23721867
C      14.89600375    17.07757933    13.69849523     0.44420966    -0.34866900    -0.37639562
O      16.67059097    16.81693123    12.21635361    -0.01623393    -2.82901620     0.14642611
H      15.77978953    18.67076748    12.44513874     0.05109318    -0.26593345     0.08535072
H      16.82295924    18.14037457    13.80476580    -0.21109491    -0.08133528    -0.14465096
O      15.27705347    15.69399934    13.57951012     0.20607478    -0.70751096    -0.17760531
H      13.95401550    17.23186469    13.15217609     0.27535920    -0.11186509     0.12577191
H      14.74879022    17.31061982    14.75856595     0.06751723    -0.17357577    -0.26599670
C      16.24943587    15.40904004    12.65709216    -1.03049791     2.69432581     0.72140505
O      16.58566637    14.30666438    12.33796444    -0.05732957     2.87613826     0.12291349
