# total energy = -9321.44874930 eV

ATOMS
C      16.07637003    17.81756317    13.06441657     0.12099477    -0.21771879    -0.12451414
C      14.89600375    17.07757933    13.69849523     0.66951174    -0.33622068     0.29748008
O      16.67059097    16.81693123    12.21635361    -0.51959338    -0.43074402     0.60329022
H      15.77978953    18.67076748    12.44513874     0.06835748    -0.23045816     0.14530240
H      16.82295924    18.14037457    13.80476580    -0.19691366    -0.09894639    -0.19977382
O      15.27705347    15.69399934    13.57951012     0.52233446     0.44738990    -0.59758066
H      13.97285527    17.22877898    13.16310247    -0.36456250     0.05122523    -0.23181742
H      14.74879022    17.31061982    14.75856595     0.07050695    -0.07017160    -0.26245526
C      16.25132981    15.57770283    12.62303484     0.12401315    -0.32528350    -0.11883721
O      16.67544347    14.54143753    12.20302606    -0.49464902     1.21092801     0.48890580
