# total energy = -9321.39501052 eV

ATOMS
C      16.07637003    17.81756317    13.06441657    -0.44343675     0.54360142     0.68283484
C      14.89600375    17.07757933    13.69849523    -0.07591972    -0.17341230     0.14435761
O      16.64682213    16.85695651    12.25027613     0.50980500    -2.28400973    -0.82296790
H      15.77978953    18.67076748    12.44513874    -0.00056079    -0.13283370     0.21997939
H      16.82295924    18.14037457    13.80476580    -0.24807282     0.03070367    -0.06922897
O      15.27705347    15.69399934    13.57951012     0.48579580     0.40558733    -0.60371608
H      13.95401550    17.23186469    13.15217609     0.25375140    -0.05873563     0.13263513
H      14.74879022    17.31061982    14.75856595     0.03229975    -0.09223379    -0.27523684
C      16.25132981    15.57770283    12.62303484    -0.08523669     0.13768630     0.18050399
O      16.67544347    14.54143753    12.20302606    -0.42842516     1.62364642     0.41083882
