# total energy = -9321.34883567 eV

ATOMS
C      16.07637003    17.81756317    13.06441657    -0.31903224    -0.18949787    -0.47706824
C      14.89600375    17.07757933    13.69849523    -0.38388294    -0.79947990     0.74433539
O      16.67059097    16.81693123    12.21635361    -0.52019964    -0.38992194     0.61718735
H      15.77978953    18.67076748    12.44513874     0.09658126    -0.21393604     0.12798671
H      16.82295924    18.14037457    13.80476580    -0.27567654    -0.13336498    -0.14824440
O      15.27705347    15.69399934    13.57951012     0.86613444     0.31417719    -0.59554201
H      13.87480314    17.11355613    13.29172081     0.54276305     0.62744716    -0.61546664
H      14.74879022    17.31061982    14.75856595     0.39870325    -0.06145536    -0.08771039
C      16.25132981    15.57770283    12.62303484     0.07771484    -0.35684503    -0.03151632
O      16.67544347    14.54143753    12.20302606    -0.48310548     1.20287677     0.46603855
