# total energy = -9321.41778450 eV

ATOMS
C      16.07637003    17.81756317    13.06441657     0.06196966    -0.22622630    -0.08068346
C      14.89600375    17.07757933    13.69849523     0.06728590    -0.31305716    -0.01323034
O      16.67059097    16.81693123    12.21635361    -0.34710566    -0.77750190     0.41772758
H      15.77978953    18.67076748    12.44513874     0.08189764    -0.24118905     0.13291957
H      16.82295924    18.14037457    13.80476580    -0.19174197    -0.10881139    -0.20517844
O      15.27705347    15.69399934    13.57951012     0.35399451     0.91030820    -0.45523673
H      13.95401550    17.23186469    13.15217609     0.25470201    -0.03332331     0.13325172
H      14.74879022    17.31061982    14.75856595     0.05098207    -0.04915102    -0.27371223
C      16.25132981    15.57770283    12.62303484    -0.41800889    -0.71433902     0.41315157
O      16.62273869    14.50232534    12.25460000     0.08602472     1.55329094    -0.06900923
