# total energy = -9321.20410567 eV

ATOMS
C      16.07637003    17.81756317    13.06441657     1.05903461    -0.19048294     0.41627943
C      14.89600375    17.07757933    13.69849523     1.01349012     0.40420841    -0.97575268
O      16.67059097    16.81693123    12.21635361    -0.55586037    -0.45966709     0.59021302
H      15.77978953    18.67076748    12.44513874     0.05672503    -0.24566299     0.17465399
H      16.82295924    18.14037457    13.80476580    -0.05354045    -0.04336761    -0.26947337
O      15.27705347    15.69399934    13.57951012     0.09925805     0.65022331    -0.64455344
H      14.13508679    17.40266478    12.97397107    -0.93832883    -1.01405879     0.92610901
H      14.74879022    17.31061982    14.75856595    -0.36200804    -0.01822592    -0.51235336
C      16.25132981    15.57770283    12.62303484     0.19474452    -0.31339369    -0.22320856
O      16.67544347    14.54143753    12.20302606    -0.51351464     1.23042730     0.51808596
