# total energy = -9321.43557172 eV

ATOMS
C      16.07637003    17.81756317    13.06441657    -0.10754135    -0.42453496     0.13090996
C      14.89600375    17.07757933    13.69849523    -0.09193422    -0.30211251    -0.20431483
O      16.67059097    16.81693123    12.21635361    -0.46194398    -0.33629726     0.67130226
H      15.77978953    18.67076748    12.44513874     0.17085681    -0.19531461     0.22850498
H      16.77881488    18.10880824    13.85906566     0.06047020     0.05551015    -0.48301201
O      15.27705347    15.69399934    13.57951012     0.52041680     0.46752837    -0.59630061
H      13.95401550    17.23186469    13.15217609     0.22967869    -0.07265686     0.14784966
H      14.74879022    17.31061982    14.75856595     0.06016752    -0.06399730    -0.28029330
C      16.25132981    15.57770283    12.62303484     0.11660820    -0.34978157    -0.10255221
O      16.67544347    14.54143753    12.20302606    -0.49677867     1.22165654     0.48790609
