# total energy = -9321.35046758 eV

ATOMS
C      16.07637003    17.81756317    13.06441657     0.25486451    -0.12666329    -0.27386042
C      14.89600375    17.07757933    13.69849523    -0.11315320     0.15511210     0.14735455
O      16.67059097    16.81693123    12.21635361    -1.18250413    -0.69418345     1.25437005
H      15.77978953    18.67076748    12.44513874     0.02453037    -0.19341149     0.18957462
H      16.82295924    18.14037457    13.80476580    -0.21970508    -0.06734589    -0.15852043
O      15.27705347    15.69399934    13.57951012    -1.45386260     1.19780591     1.29724229
H      13.95401550    17.23186469    13.15217609     0.27102584    -0.09480993     0.14352135
H      14.74879022    17.31061982    14.75856595     0.03105939    -0.08812028    -0.28138957
C      16.19287323    15.58468062    12.68042336     2.63283107    -0.77290743    -2.57292918
O      16.61698689    14.54841532    12.26041458    -0.24508618     0.68452375     0.25463675
