# total energy = -9321.38959634 eV

ATOMS
C      16.07637003    17.81756317    13.06441657     0.10092257    -0.23090891    -0.18445151
C      14.89600375    17.07757933    13.69849523     0.39065865    -0.74649744    -2.41914082
O      16.67059097    16.81693123    12.21635361    -0.51827869    -0.42329995     0.60727831
H      15.77978953    18.67076748    12.44513874     0.07723086    -0.23082172     0.14508048
H      16.82295924    18.14037457    13.80476580    -0.19812208    -0.09940996    -0.18669691
O      15.27705347    15.69399934    13.57951012     0.53896408     0.43544723    -0.62167424
H      13.95401550    17.23186469    13.15217609     0.26501023    -0.05083365     0.07771775
H      14.75762303    17.29663739    14.69496171    -0.27733213     0.46671605     2.21569391
C      16.25132981    15.57770283    12.62303484     0.11264336    -0.32916832    -0.12239097
O      16.67544347    14.54143753    12.20302606    -0.49169685     1.20877666     0.48858400
