# total energy = -9321.35389237 eV

ATOMS
C      16.07637003    17.81756317    13.06441657     0.12189662    -0.05268468     0.31144504
C      14.89600375    17.07757933    13.69849523    -0.73934291    -0.85768471    -0.09893923
O      16.67059097    16.81693123    12.21635361    -0.60833696    -0.40188211     0.67773293
H      15.77978953    18.67076748    12.44513874     0.04575040    -0.25475985     0.16305702
H      16.82295924    18.14037457    13.80476580    -0.17224264    -0.08011350    -0.21040922
O      15.27705347    15.69399934    13.57951012     0.68867007     0.31718174    -0.89956073
H      13.95401550    17.23186469    13.15217609     0.31843333    -0.06939628    -0.25114387
H      14.59636378    17.18395574    14.74665055     0.77751349     0.60020556    -0.08927177
C      16.25132981    15.57770283    12.62303484     0.03295589    -0.41197773    -0.07551765
O      16.67544347    14.54143753    12.20302606    -0.46529728     1.21111156     0.47260748
