# total energy = -9321.42026160 eV

ATOMS
C      16.07637003    17.81756317    13.06441657     0.20397229    -0.15652220    -0.22804642
C      14.89600375    17.07757933    13.69849523    -0.04033179     0.01095552     0.07797680
O      16.67059097    16.81693123    12.21635361    -0.96525182    -0.61700596     1.04147878
H      15.77978953    18.67076748    12.44513874     0.04017839    -0.20618105     0.17540349
H      16.82295924    18.14037457    13.80476580    -0.21237905    -0.07829872    -0.17114159
O      15.27705347    15.69399934    13.57951012    -0.65252179     0.92447000     0.52295938
H      13.95401550    17.23186469    13.15217609     0.26670355    -0.07876433     0.14054893
H      14.74879022    17.31061982    14.75856595     0.03816134    -0.08239712    -0.27894387
C      16.21235876    15.58235469    12.66129385     1.65750233    -0.58085674    -1.62052852
O      16.63647242    14.54608939    12.24128507    -0.33603345     0.86460061     0.34029303
