# total energy = -9320.98717005 eV

ATOMS
C      16.07637003    17.81756317    13.06441657    -1.79592256     2.58770829     2.67689778
C      14.89600375    17.07757933    13.69849523    -0.39512245    -0.04191990     0.48299826
O      16.61116888    16.91699442    12.30115991     2.69655689    -5.86818964    -3.87115849
H      15.77978953    18.67076748    12.44513874    -0.13820628     0.07154173     0.33911716
H      16.82295924    18.14037457    13.80476580    -0.31147296     0.27229906     0.17724640
O      15.27705347    15.69399934    13.57951012     0.47448167     0.32886565    -0.64690311
H      13.95401550    17.23186469    13.15217609     0.24814428    -0.07795155     0.12912240
H      14.74879022    17.31061982    14.75856595     0.00305487    -0.12604650    -0.27569261
C      16.25132981    15.57770283    12.62303484    -0.44729688     0.67178965     0.68268722
O      16.67544347    14.54143753    12.20302606    -0.33421658     2.18190320     0.30568500
