# total energy = -9321.28628301 eV

ATOMS
C      16.07637003    17.81756317    13.06441657     1.41914209    -0.01421353    -0.27338699
C      14.89600375    17.07757933    13.69849523    -0.20888429     0.17743939    -0.35188751
O      16.67059097    16.81693123    12.21635361    -0.47571404    -0.93434987     0.72325605
H      16.03561709    18.69472361    12.40993099    -1.23262848    -0.15623191     0.21608245
H      16.82295924    18.14037457    13.80476580    -0.11659503    -0.47569168     0.15843440
O      15.27705347    15.69399934    13.57951012     0.54585457     0.62003526    -0.61181061
H      13.95401550    17.23186469    13.15217609     0.22218204    -0.06812545     0.15624827
H      14.74879022    17.31061982    14.75856595     0.08987302    -0.05234311    -0.29944245
C      16.25132981    15.57770283    12.62303484     0.27651282    -0.26876687    -0.21498556
O      16.67544347    14.54143753    12.20302606    -0.51974271     1.17224778     0.49749195
