# total energy = -9321.33241330 eV

ATOMS
C      16.07637003    17.81756317    13.06441657     0.16243095    -0.21123331    -0.08779653
C      14.89600375    17.07757933    13.69849523     2.96994138    -0.66063483     1.66892853
O      16.67059097    16.81693123    12.21635361    -0.51630656    -0.42940385     0.59948438
H      15.77978953    18.67076748    12.44513874     0.06165732    -0.22841877     0.14072891
H      16.82295924    18.14037457    13.80476580    -0.19632851    -0.09469945    -0.21107524
O      15.27705347    15.69399934    13.57951012     0.55786559     0.37767513    -0.61148138
H      14.02937456    17.21952186    13.19588162    -2.78005165     0.43671437    -1.64962897
H      14.74879022    17.31061982    14.75856595     0.11991318    -0.06894974    -0.23410116
C      16.25132981    15.57770283    12.62303484     0.11267494    -0.33049410    -0.10025860
O      16.67544347    14.54143753    12.20302606    -0.49179662     1.20944455     0.48520005
