# total energy = -9321.03858745 eV

ATOMS
C      16.07637003    17.81756317    13.06441657     0.04379126    -0.17459849    -0.35901727
C      14.89600375    17.07757933    13.69849523     0.65279118     0.27910626     1.23793730
O      16.67059097    16.81693123    12.21635361    -0.52979318    -2.13013515     2.35583507
H      15.77978953    18.67076748    12.44513874     0.04645379    -0.24752262     0.13516714
H      16.82295924    18.14037457    13.80476580    -0.24633187    -0.03075375    -0.11318304
O      15.37696392    15.72410396    13.80063072     0.92156045     0.36100930    -1.48298763
H      13.95401550    17.23186469    13.15217609     0.31921651    -0.72101045    -0.04916520
H      14.74879022    17.31061982    14.75856595    -0.21101972     0.61179000    -0.35796472
C      16.43788511    15.55959268    12.94918108    -0.57237574     0.10004189    -1.89863141
O      16.96535887    14.51333643    12.70992216    -0.42429268     1.95207301     0.53200976
