# total energy = -9320.88031497 eV

ATOMS
C      16.07637003    17.81756317    13.06441657     2.40107462     0.50595288     1.95116920
C      14.89600375    17.07757933    13.69849523     0.27951101    -0.26364502     0.08107730
O      16.67059097    16.81693123    12.21635361    -0.59269059    -0.13460532     0.78977489
H      15.77978953    18.67076748    12.44513874     0.24433917    -0.17355585     0.27107881
H      16.97227708    18.20493685    13.95283565    -2.74995816    -1.15951116    -2.71065974
O      15.27705347    15.69399934    13.57951012     0.51708455     0.49147137    -0.61178659
H      13.95401550    17.23186469    13.15217609     0.26160590    -0.02167969     0.09317010
H      14.74879022    17.31061982    14.75856595     0.03960250    -0.07624719    -0.29384118
C      16.25132981    15.57770283    12.62303484     0.09665118    -0.41018203    -0.05610678
O      16.67544347    14.54143753    12.20302606    -0.49722018     1.24200199     0.48612399
