# total energy = -9315.15648204 eV

ATOMS
C      16.07637003    17.81756317    13.06441657    -0.54474493     3.89191217     1.02784448
C      14.89600375    17.07757933    13.69849523    -1.06996111     0.58775072     1.01850847
O      16.67059097    16.81693123    12.21635361     7.74566495    32.12316897    -5.08114089
H      15.77978953    18.67076748    12.44513874     0.01978309    -0.08071468     0.31380062
H      16.82295924    18.14037457    13.80476580    -0.21239379    -0.09675781    -0.22807856
O      15.27705347    15.69399934    13.57951012     1.24531474     2.94595204    -1.59858312
H      13.95401550    17.23186469    13.15217609     0.23204672     0.04967133     0.14955127
H      14.74879022    17.31061982    14.75856595    -0.00363337     0.13503234    -0.26794698
C      16.20085768    15.95515401    12.60177384    -6.93086083   -28.73545775     5.42063741
O      16.78918726    15.12139339    11.97820580    -0.48121546   -10.82055734    -0.75459270
