# total energy = -9321.46184549 eV

ATOMS
C      16.07637003    17.81756317    13.06441657     0.09642904     0.08383308    -0.14109037
C      14.89600375    17.07757933    13.69849523    -0.11561021     0.33971051     0.02636736
O      16.67059097    16.81693123    12.21635361    -0.52586473     0.21210510     0.61806817
H      15.77978953    18.67076748    12.44513874     0.08424868    -0.22218647     0.15507943
H      16.82295924    18.14037457    13.80476580    -0.19180023    -0.10325561    -0.20343906
O      15.26943248    15.72167094    13.58188982     0.71702200    -0.29714914    -0.64573462
H      13.95401550    17.23186469    13.15217609     0.22204142     0.04451362     0.13566128
H      14.74879022    17.31061982    14.75856595     0.03509128     0.01490287    -0.26550122
C      16.24370882    15.60537443    12.62541454     0.21229770    -1.03537215    -0.18945734
O      16.66782248    14.56910913    12.20540576    -0.53385496     0.96289817     0.51004638
