# total energy = -9320.15830120 eV

ATOMS
C      16.07637003    17.81756317    13.06441657     0.25734094    -2.05560531    -0.05153138
C      14.89600375    17.07757933    13.69849523     0.80495961    -1.83650272    -0.32703307
O      16.67059097    16.81693123    12.21635361     0.08432671    -2.73507372    -0.04459998
H      15.77978953    18.67076748    12.44513874    -0.05081692    -0.26856125     0.07613954
H      16.82295924    18.14037457    13.80476580    -0.24552666    -0.07642974    -0.12541669
O      15.33802143    15.47262654    13.56047250     0.05175632     3.22520759    -0.69309477
H      13.95401550    17.23186469    13.15217609     0.40896633    -0.62646513     0.07714932
H      14.74879022    17.31061982    14.75856595     0.13798302    -0.59414627    -0.23459796
C      16.31229777    15.35633003    12.60399722    -1.18857256     2.30662225     0.97979332
O      16.73641143    14.32006473    12.18398844    -0.26041679     2.66095430     0.34319166
