# total energy = -9321.09920771 eV

ATOMS
C      16.07637003    17.81756317    13.06441657     2.02819505    -0.00536114    -0.27188215
C      14.89600375    17.07757933    13.69849523    -0.35729296     0.33712876    -0.45678626
O      16.67059097    16.81693123    12.21635361    -0.46451815    -1.20466477     0.77499216
H      16.15768759    18.68895436    12.40601893    -1.80968070     0.08304218     0.10976606
H      16.82295924    18.14037457    13.80476580    -0.08635877    -0.66884191     0.36159878
O      15.27705347    15.69399934    13.57951012     0.56181643     0.68712075    -0.61909909
H      13.95401550    17.23186469    13.15217609     0.20632206    -0.08251679     0.16653247
H      14.74879022    17.31061982    14.75856595     0.10669582    -0.04224906    -0.31096059
C      16.25132981    15.57770283    12.62303484     0.34586534    -0.25672706    -0.25435366
O      16.67544347    14.54143753    12.20302606    -0.53104412     1.15306903     0.50019228
