# total energy = -9321.31977538 eV

ATOMS
C      16.07637003    17.81756317    13.06441657     0.01606417    -0.22758937    -0.02172875
C      14.89600375    17.07757933    13.69849523     0.04029139    -0.35880751     0.02724932
O      16.67059097    16.81693123    12.21635361    -0.18446614    -1.08076724     0.24196065
H      15.77978953    18.67076748    12.44513874     0.09320279    -0.25038648     0.11924380
H      16.82295924    18.14037457    13.80476580    -0.18573927    -0.11695477    -0.21421757
O      15.27705347    15.69399934    13.57951012     0.16973445     1.40023460    -0.28821872
H      13.95401550    17.23186469    13.15217609     0.25079160    -0.01848201     0.13240339
H      14.74879022    17.31061982    14.75856595     0.04922923    -0.02688211    -0.27407544
C      16.25132981    15.57770283    12.62303484    -0.98628536    -1.02267516     0.97410063
O      16.56822445    14.46845228    12.30796891     0.73717713     1.70231005    -0.69671731
