# total energy = -9321.43474751 eV

ATOMS
C      16.07637003    17.81756317    13.06441657     0.30707670    -0.01944373    -0.43292344
C      14.89600375    17.07757933    13.69849523     0.25452160    -0.22737543     0.09841009
O      16.67059097    16.81693123    12.21635361    -0.58344954    -0.53796273     0.53608087
H      15.77978953    18.67076748    12.44513874    -0.04071112    -0.26759638     0.06332482
H      16.86346629    18.17036820    13.74685903    -0.40800497    -0.23353822     0.12818863
O      15.27705347    15.69399934    13.57951012     0.49674806     0.48144561    -0.58775611
H      13.95401550    17.23186469    13.15217609     0.28507600    -0.02336755     0.11994158
H      14.74879022    17.31061982    14.75856595     0.04300707    -0.07749580    -0.26544232
C      16.25132981    15.57770283    12.62303484     0.14096158    -0.29605251    -0.15358578
O      16.67544347    14.54143753    12.20302606    -0.49522538     1.20138674     0.49376164
