# total energy = -9321.41958962 eV

ATOMS
C      16.07637003    17.81756317    13.06441657     0.08983042     0.40917635    -0.14171361
C      14.89600375    17.07757933    13.69849523    -0.36428763     1.08386925     0.11887963
O      16.67059097    16.81693123    12.21635361    -0.49707493     0.96101577     0.60121810
H      15.77978953    18.67076748    12.44513874     0.09792107    -0.21218933     0.16325271
H      16.82295924    18.14037457    13.80476580    -0.18602493    -0.10613436    -0.21086577
O      15.26181148    15.74934254    13.58426952     0.97611216    -1.21988290    -0.71863652
H      13.95401550    17.23186469    13.15217609     0.18024799     0.14206465     0.13551058
H      14.74879022    17.31061982    14.75856595     0.01573720     0.10572544    -0.25401459
C      16.23608782    15.63304603    12.62779424     0.26224395    -1.85894356    -0.22393376
O      16.66020148    14.59678073    12.20778546    -0.57470528     0.69529871     0.53030322
