# total energy = -9321.32068600 eV

ATOMS
C      16.07637003    17.81756317    13.06441657    -0.44405366     1.30486182    -1.32693790
C      14.89600375    17.07757933    13.69849523     0.06314957    -0.21499489    -0.09345804
O      16.67059097    16.81693123    12.21635361    -0.53240186    -0.34469354     0.62137030
H      15.75606309    18.73902382    12.39559651     0.67509234    -1.93762404     1.40949122
H      16.82295924    18.14037457    13.80476580    -0.21327799    -0.04002800    -0.25196647
O      15.27705347    15.69399934    13.57951012     0.51937609     0.46823887    -0.59801829
H      13.95401550    17.23186469    13.15217609     0.26214333    -0.05463920     0.14173885
H      14.74879022    17.31061982    14.75856595     0.05940856    -0.06315957    -0.27260543
C      16.25132981    15.57770283    12.62303484     0.10524202    -0.33930486    -0.12269242
O      16.67544347    14.54143753    12.20302606    -0.49467840     1.22134340     0.49307819
