# total energy = -9321.38929025 eV

ATOMS
C      16.07637003    17.81756317    13.06441657     0.76924494    -2.09151927     1.27530171
C      14.89600375    17.07757933    13.69849523     0.11332834    -0.29125483    -0.02109090
O      16.67059097    16.81693123    12.21635361    -0.51344679    -0.48661620     0.59615113
H      15.79758436    18.61957522    12.48229541    -0.63211448     1.75849421    -1.31818803
H      16.82295924    18.14037457    13.80476580    -0.18668420    -0.14058462    -0.15707688
O      15.27705347    15.69399934    13.57951012     0.50093958     0.47678910    -0.59043891
H      13.95401550    17.23186469    13.15217609     0.25577397    -0.04135781     0.12780564
H      14.74879022    17.31061982    14.75856595     0.04748819    -0.07557449    -0.27311520
C      16.25132981    15.57770283    12.62303484     0.14237177    -0.31469371    -0.12842566
O      16.67544347    14.54143753    12.20302606    -0.49690130     1.20631762     0.48907709
