# total energy = -9321.45805844 eV

ATOMS
C      16.07637003    17.81756317    13.06441657     0.63219968     0.17252864    -0.38482193
C      14.91961108    17.09237901    13.68581366    -0.47028831    -0.65079090     0.22846055
O      16.67059097    16.81693123    12.21635361    -0.05738346     0.25330120     0.16812182
H      15.77978953    18.67076748    12.44513874     0.11996644    -0.21877306     0.13341868
H      16.82295924    18.14037457    13.80476580    -0.15299712    -0.09157283    -0.23186171
O      15.30066080    15.70879902    13.56682855     0.33017403     0.26878613    -0.38107122
H      13.97762283    17.24666437    13.13949452     0.22310293    -0.07293761     0.15263569
H      14.77239755    17.32541950    14.74588438     0.01512816    -0.08143233    -0.26489918
C      16.27493714    15.59250251    12.61035327    -0.19890381    -0.68020924     0.12279944
O      16.69905080    14.55623721    12.19034449    -0.44099854     1.10109999     0.45721787
