# total energy = -9321.39240144 eV

ATOMS
C      16.07637003    17.81756317    13.06441657    -1.52889439    -0.85878234    -1.71235089
C      14.89600375    17.07757933    13.69849523     0.04508513    -0.26030267    -0.08603367
O      16.67059097    16.81693123    12.21635361    -0.50102179    -0.50025077     0.56165509
H      15.77978953    18.67076748    12.44513874     0.02393018    -0.24409066     0.11259828
H      16.77816389    18.12100589    13.76034485     1.50086160     0.61535191     1.48467486
O      15.27705347    15.69399934    13.57951012     0.50593390     0.46926566    -0.58959637
H      13.95401550    17.23186469    13.15217609     0.25771677    -0.05312344     0.14512203
H      14.74879022    17.31061982    14.75856595     0.05705737    -0.06820880    -0.26641378
C      16.25132981    15.57770283    12.62303484     0.13549900    -0.30624351    -0.14135030
O      16.67544347    14.54143753    12.20302606    -0.49616776     1.20638462     0.49169474
