# total energy = -9320.41250782 eV

ATOMS
C      16.07637003    17.81756317    13.06441657     1.38701207     1.51734111    -0.60446781
C      14.89600375    17.07757933    13.69849523     0.32947293    -0.23946737    -0.53288957
O      16.84170754    17.00434118    12.15529497    -3.57641787    -4.34185251     2.53034669
H      15.77978953    18.67076748    12.44513874    -0.26174202     0.09976126     0.53586642
H      16.82295924    18.14037457    13.80476580    -0.55394379     0.17512904     0.16786435
O      15.27705347    15.69399934    13.57951012     1.34782507     0.88302133    -1.55189087
H      13.95401550    17.23186469    13.15217609     0.26601254    -0.09267203     0.14043884
H      14.74879022    17.31061982    14.75856595     0.13449460    -0.04355462    -0.29411660
C      16.25132981    15.57770283    12.62303484     1.73200955    -0.23626080    -1.07506571
O      16.67544347    14.54143753    12.20302606    -0.80472309     2.27855458     0.68391427
