# total energy = -9321.08293098 eV

ATOMS
C      16.07637003    17.81756317    13.06441657     0.92133856     0.68509573    -1.76483438
C      14.89600375    17.07757933    13.69849523     0.72299958    -0.16349027     0.65526752
O      16.67059097    16.81693123    12.21635361    -0.86284153    -1.07833541     0.23690804
H      15.77978953    18.67076748    12.44513874    -0.59271124    -0.41336299    -0.28517698
H      16.98545986    18.27182274    13.48503940    -0.72862224    -0.49290857     1.67459263
O      15.27705347    15.69399934    13.57951012     0.45709617     0.54112945    -0.55715215
H      13.95401550    17.23186469    13.15217609     0.37730137     0.06020193     0.06465916
H      14.74879022    17.31061982    14.75856595     0.00080080    -0.10771236    -0.24088382
C      16.25132981    15.57770283    12.62303484     0.19586772    -0.18888618    -0.29575954
O      16.67544347    14.54143753    12.20302606    -0.49122918     1.15826868     0.51237952
