# total energy = -9321.18943774 eV

ATOMS
C      16.07637003    17.81756317    13.06441657    -0.51825918    -0.15233726    -0.67371150
C      14.89600375    17.07757933    13.69849523    -0.59155139    -1.13592933     1.26389010
O      16.67059097    16.81693123    12.21635361    -0.52745854    -0.35972051     0.62669120
H      15.77978953    18.67076748    12.44513874     0.11450278    -0.20373133     0.11767872
H      16.82295924    18.14037457    13.80476580    -0.31725349    -0.15246818    -0.12070804
O      15.27705347    15.69399934    13.57951012     1.11859756     0.19798266    -0.61208831
H      13.84261397    17.03991250    13.38454997     0.50788434     1.02971238    -1.12317151
H      14.74879022    17.31061982    14.75856595     0.63974424    -0.03627609     0.03890351
C      16.25132981    15.57770283    12.62303484     0.04943950    -0.38509669     0.03335559
O      16.67544347    14.54143753    12.20302606    -0.47564583     1.19786435     0.44916024
