# total energy = -9321.08516446 eV

ATOMS
C      16.07637003    17.81756317    13.06441657     0.03236557    -0.23507588    -0.16356960
C      14.89600375    17.07757933    13.69849523     0.24912636    -1.25130155    -1.17490619
O      16.67059097    16.81693123    12.21635361    -0.54847361    -0.36306273     0.58964066
H      15.77978953    18.67076748    12.44513874     0.05714136    -0.21389475     0.15697172
H      16.82295924    18.14037457    13.80476580    -0.20761222    -0.09733010    -0.16469564
O      15.27705347    15.69399934    13.57951012     1.93065577    -0.52796283    -0.05362855
H      14.05950815    16.93259883    12.99930556    -0.61839517     1.90673878     0.79079402
H      14.74879022    17.31061982    14.75856595    -0.51287001     0.03345539    -0.52171918
C      16.25132981    15.57770283    12.62303484     0.10274893    -0.42201133     0.14240116
O      16.67544347    14.54143753    12.20302606    -0.48468699     1.17044499     0.39871160
