# total energy = -9321.32234410 eV

ATOMS
C      16.07637003    17.81756317    13.06441657     1.46184853     0.26575116     1.13741024
C      14.89600375    17.07757933    13.69849523     0.16203319    -0.26070703    -0.00043652
O      16.67059097    16.81693123    12.21635361    -0.54889267    -0.32327492     0.67263811
H      15.77978953    18.67076748    12.44513874     0.13751007    -0.21108089     0.19567064
H      16.88268638    18.16619948    13.86399374    -1.65066867    -0.70779051    -1.63046295
O      15.27705347    15.69399934    13.57951012     0.51165685     0.47958789    -0.59897582
H      13.95401550    17.23186469    13.15217609     0.25930013    -0.03850495     0.11805040
H      14.74879022    17.31061982    14.75856595     0.04671209    -0.07316272    -0.28149869
C      16.25132981    15.57770283    12.62303484     0.11655260    -0.35229689    -0.10111986
O      16.67544347    14.54143753    12.20302606    -0.49605212     1.22147886     0.48872444
