# total energy = -9321.04979940 eV

ATOMS
C      16.07637003    17.81756317    13.06441657     2.19436553     0.47332617     1.78674439
C      14.89600375    17.07757933    13.69849523     0.23930909    -0.26230751     0.05333698
O      16.67059097    16.81693123    12.21635361    -0.57805046    -0.20059629     0.74915650
H      15.77978953    18.67076748    12.44513874     0.20827414    -0.18703590     0.24606447
H      16.94241351    18.19202439    13.92322168    -2.48861311    -1.05341520    -2.45483643
O      15.27705347    15.69399934    13.57951012     0.51536301     0.48728147    -0.60718658
H      13.95401550    17.23186469    13.15217609     0.26078437    -0.02766004     0.10152208
H      14.74879022    17.31061982    14.75856595     0.04179712    -0.07531658    -0.28987846
C      16.25132981    15.57770283    12.62303484     0.10353295    -0.38886647    -0.07195170
O      16.67544347    14.54143753    12.20302606    -0.49676263     1.23459035     0.48702875
