# total energy = -9321.29955897 eV

ATOMS
C      16.07637003    17.81756317    13.06441657     2.03554161     1.17125118    -1.06556579
C      14.96682573    17.12197836    13.66045051    -1.94533848    -1.65462473     0.97163632
O      16.67059097    16.81693123    12.21635361     0.99387889     2.04260905    -0.86955469
H      15.77978953    18.67076748    12.44513874     0.22425828    -0.18745417     0.10472428
H      16.82295924    18.14037457    13.80476580    -0.05335934    -0.07505441    -0.30693796
O      15.34787545    15.73839837    13.54146540    -0.07403143    -0.18328918     0.10962528
H      14.02483748    17.27626372    13.11413137     0.14570098    -0.13072209     0.19066153
H      14.81961220    17.35501885    14.72052123    -0.06634864    -0.10526991    -0.24660021
C      16.32215179    15.62210186    12.58499012    -0.93652568    -1.75790676     0.72463176
O      16.74626545    14.58583656    12.16498134    -0.32377618     0.88046101     0.38737949
