# total energy = -9321.08177143 eV

ATOMS
C      16.07637003    17.81756317    13.06441657    -1.35018202    -0.87113542     0.33204672
C      14.89600375    17.07757933    13.69849523     0.44040373    -1.23059245     0.60884206
O      16.67059097    16.81693123    12.21635361    -0.65025998     0.12020908     0.43916665
H      15.43766345    18.54967156    12.55895260     1.72977214     0.72446384    -0.66247400
H      16.82295924    18.14037457    13.80476580    -0.36048497     0.33157311    -0.53141116
O      15.27705347    15.69399934    13.57951012     0.42692578     0.24789420    -0.54052881
H      13.95401550    17.23186469    13.15217609     0.28442818    -0.07365877     0.11338947
H      14.74879022    17.31061982    14.75856595    -0.00335461    -0.07583059    -0.23076730
C      16.25132981    15.57770283    12.62303484    -0.04937181    -0.43281278    -0.01046162
O      16.67544347    14.54143753    12.20302606    -0.46787645     1.25988977     0.48219799
