# total energy = -9321.17382100 eV

ATOMS
C      16.07637003    17.81756317    13.06441657    -1.25907048     1.75986432     1.88814232
C      14.89600375    17.07757933    13.69849523    -0.27844120    -0.08512090     0.36342210
O      16.62305329    16.89698179    12.28419865     1.86621155    -4.54193689    -2.71160121
H      15.77978953    18.67076748    12.44513874    -0.08755030    -0.00543504     0.29845272
H      16.82295924    18.14037457    13.80476580    -0.29260359     0.18511909     0.08644504
O      15.27705347    15.69399934    13.57951012     0.47504743     0.35039617    -0.62881731
H      13.95401550    17.23186469    13.15217609     0.24984374    -0.07126751     0.13054374
H      14.74879022    17.31061982    14.75856595     0.01263337    -0.11468627    -0.27599087
C      16.25132981    15.57770283    12.62303484    -0.32145371     0.51950378     0.51051531
O      16.67544347    14.54143753    12.20302606    -0.36461684     2.00356325     0.33888816
