# total energy = -9320.41809640 eV

ATOMS
C      16.07637003    17.81756317    13.06441657    -0.30207273    -0.53049116     0.29018744
C      14.89600375    17.07757933    13.69849523     0.51557130    -1.43505304    -0.50041148
O      16.67059097    16.81693123    12.21635361     1.56699619     0.54914642    -1.48280286
H      15.77978953    18.67076748    12.44513874     0.19845467    -0.34480155     0.00071980
H      16.82295924    18.14037457    13.80476580    -0.12651681    -0.21245496    -0.30346947
O      15.27705347    15.69399934    13.57951012     1.66389006    -0.51324978    -1.65553059
H      13.95401550    17.23186469    13.15217609     0.21975653     0.09311363     0.08984068
H      14.74879022    17.31061982    14.75856595     0.12133160     0.00844020    -0.22615854
C      16.44618508    15.55444353    12.43173978    -2.87613927    -0.33706754     2.84539559
O      16.87029874    14.51817823    12.01173100    -0.98127154     2.72241777     0.94222944
