# total energy = -9289.52678857 eV

ATOMS
C      16.07637003    17.81756317    13.06441657    -2.02325173     6.03152589     1.32449389
C      14.89600375    17.07757933    13.69849523     2.50861361    -0.25648702    -1.73481648
O      16.67059097    16.81693123    12.21635361    29.32264881   195.82543294   -57.18560383
H      15.77978953    18.67076748    12.44513874     0.44554669    -0.10418913     0.00873252
H      16.82295924    18.14037457    13.80476580    -0.01963539    -0.38292822    -0.46879471
O      15.60091675    15.85602861    13.40770076    -3.80351162    -3.72710990     3.66959762
H      13.95401550    17.23186469    13.15217609     0.21614221    -0.46984668     0.04417790
H      14.74879022    17.31061982    14.75856595     0.32361694    -0.44038005    -0.17738820
C      16.54629583    16.10154480    12.44667817   -29.81771772  -185.44770209    55.94479331
O      17.19924886    15.26132366    11.90096184     2.84754819   -11.02831574    -1.42519201
