# total energy = -9321.00136800 eV

ATOMS
C      16.07637003    17.81756317    13.06441657     0.16613914    -1.25530385    -0.10385092
C      14.89600375    17.07757933    13.69849523     0.60895314    -1.59291776    -0.24710472
O      16.67059097    16.81693123    12.21635361    -0.28609587    -2.11375374     0.35227819
H      15.77978953    18.67076748    12.44513874     0.01242802    -0.25736271     0.11165372
H      16.82295924    18.14037457    13.80476580    -0.22165051    -0.08881279    -0.16214608
O      15.30753745    15.58331294    13.56999131     0.06560308     2.42323171    -0.54601517
H      13.95401550    17.23186469    13.15217609     0.35837599    -0.36825655     0.11269771
H      14.74879022    17.31061982    14.75856595     0.10466456    -0.36388371    -0.27025907
C      16.28181379    15.46701643    12.61351603    -0.44173722     1.57404161     0.33650143
O      16.70592745    14.43075113    12.19350725    -0.36668034     2.04301779     0.41624492
