# total energy = -9321.18531529 eV

ATOMS
C      16.07637003    17.81756317    13.06441657     0.18961174    -0.72466865    -0.19694969
C      14.89600375    17.07757933    13.69849523     0.29955083    -0.32012853    -0.24113575
O      16.67059097    16.81693123    12.21635361    -0.29727206    -2.25161460     0.40232683
H      15.77978953    18.67076748    12.44513874     0.06229332    -0.25321105     0.11197654
H      16.82295924    18.14037457    13.80476580    -0.20438418    -0.09034049    -0.16888327
O      15.27705347    15.69399934    13.57951012     0.34260066    -0.18631028    -0.36234215
H      13.95401550    17.23186469    13.15217609     0.26722425    -0.08269595     0.12976543
H      14.74879022    17.31061982    14.75856595     0.06053119    -0.12835558    -0.26946977
C      16.25217823    15.48360341    12.64012229    -0.45932929     1.75866549     0.29080490
O      16.62839082    14.40855449    12.27562339    -0.26082647     2.27865965     0.30390694
