# total energy = -9321.40948795 eV

ATOMS
C      16.07637003    17.81756317    13.06441657    -0.20808233     0.65599973    -0.81366995
C      14.89600375    17.07757933    13.69849523     0.07725005    -0.23805160    -0.07196857
O      16.67059097    16.81693123    12.21635361    -0.52643120    -0.38961326     0.61242401
H      15.76792631    18.70489565    12.42036763     0.41157268    -1.19532285     0.85909773
H      16.82295924    18.14037457    13.80476580    -0.20557014    -0.07100705    -0.22331895
O      15.27705347    15.69399934    13.57951012     0.51364463     0.47055487    -0.59511561
H      13.95401550    17.23186469    13.15217609     0.26000066    -0.05127611     0.13791229
H      14.74879022    17.31061982    14.75856595     0.05574810    -0.06687687    -0.27268112
C      16.25132981    15.57770283    12.62303484     0.11717689    -0.33058362    -0.12434787
O      16.67544347    14.54143753    12.20302606    -0.49530933     1.21617675     0.49166804
