# total energy = -9321.29639844 eV

ATOMS
C      16.07637003    17.81756317    13.06441657     0.16194819    -0.24128135    -0.21204974
C      14.89600375    17.07757933    13.69849523     0.08073769    -0.35069306    -0.02172834
O      16.67059097    16.81693123    12.21635361    -0.52947028     0.15571153     0.62971432
H      15.77978953    18.67076748    12.44513874     0.06326771    -0.21720690     0.15764431
H      16.82295924    18.14037457    13.80476580    -0.20465689    -0.08943026    -0.18450727
O      15.27705347    15.69399934    13.57951012     0.14785917     0.78778616    -0.25206950
H      13.95401550    17.23186469    13.15217609     0.25386466    -0.03098146     0.13390496
H      14.74879022    17.31061982    14.75856595     0.04634227    -0.05241583    -0.27076336
C      16.25132981    15.57770283    12.62303484    -2.24543764     5.47671126     2.22461964
O      16.64999665    14.60361345    12.22822659     2.22554511    -5.43820007    -2.20476502
