# total energy = -9321.43549162 eV

ATOMS
C      16.07637003    17.81756317    13.06441657     0.48289309    -0.13483561    -0.19611679
C      14.89600375    17.07757933    13.69849523     0.00681132    -0.11590090    -0.15107094
O      16.67059097    16.81693123    12.21635361    -0.50470088    -0.56895803     0.64022759
H      15.85393799    18.68289278    12.43105153    -0.31273852    -0.27108795     0.20897825
H      16.82295924    18.14037457    13.80476580    -0.17155481    -0.20503049    -0.10241484
O      15.27705347    15.69399934    13.57951012     0.52027232     0.51699742    -0.59941881
H      13.95401550    17.23186469    13.15217609     0.24734960    -0.05198113     0.14041645
H      14.74879022    17.31061982    14.75856595     0.06353444    -0.06582386    -0.28095703
C      16.25132981    15.57770283    12.62303484     0.17092963    -0.30388335    -0.15227616
O      16.67544347    14.54143753    12.20302606    -0.50279619     1.20050390     0.49263228
