# total energy = -9321.08113149 eV

ATOMS
C      16.07637003    17.81756317    13.06441657     0.27628039    -0.51946757    -1.31288566
C      14.89600375    17.07757933    13.69849523     1.46562331     0.59386733    -0.43831318
O      16.67059097    16.81693123    12.21635361    -0.33490388    -0.46253228     0.44892199
H      15.77978953    18.67076748    12.44513874     0.10487524    -0.17404569     0.12559909
H      16.82295924    18.14037457    13.80476580    -0.19607488    -0.14210797    -0.20297497
O      15.27705347    15.69399934    13.57951012     0.30805255     0.72851982    -0.10047075
H      13.95401550    17.23186469    13.15217609     0.19855525     0.06460725     0.69029567
H      15.05104486    17.52929586    14.68421530    -1.57730154    -1.10371536     0.50623279
C      16.25132981    15.57770283    12.62303484     0.29935413    -0.19873278    -0.23542349
O      16.67544347    14.54143753    12.20302606    -0.54446057     1.21360726     0.51901852
